DF-ISE text

Info {
  version   = 1.0
  type      = xyplot
  datasets  = [
    "time"
    "body OuterVoltage" "body InnerVoltage" "body QuasiFermiPotential" "body DisplacementCurrent" "body eCurrent"
    "body hCurrent" "body TotalCurrent" "body Charge" "gate OuterVoltage" "gate InnerVoltage"
    "gate QuasiFermiPotential" "gate DisplacementCurrent" "gate eCurrent" "gate hCurrent" "gate TotalCurrent"
    "gate Charge" ]
  functions = [
    Time
    OuterVoltage InnerVoltage QuasiFermiPotential DisplacementCurrent eCurrent
    hCurrent TotalCurrent Charge OuterVoltage InnerVoltage
    QuasiFermiPotential DisplacementCurrent eCurrent hCurrent TotalCurrent
    Charge ]
}

Data {
      0.00000000000000E+00
      0.00000000000000E+00   0.00000000000000E+00   0.00000000000000E+00   0.00000000000000E+00  -7.84711270442434E-35
      7.84711270442434E-35   0.00000000000000E+00   5.09357012890693E-15  -3.00000000000000E+00  -2.99999999999999E+00
      0.00000000000000E+00   0.00000000000000E+00   0.00000000000000E+00   0.00000000000000E+00   0.00000000000000E+00
     -5.09357012890690E-15
      1.00000000000000E-02
      0.00000000000000E+00   0.00000000000000E+00   0.00000000000000E+00   0.00000000000000E+00  -7.86365092260163E-35
      7.86365092260163E-35   0.00000000000000E+00   4.93395089300254E-15  -2.94000000000000E+00  -2.94000000000003E+00
      0.00000000000000E+00   0.00000000000000E+00   0.00000000000000E+00   0.00000000000000E+00   0.00000000000000E+00
     -4.93395089300247E-15
      2.26000000000000E-02
      0.00000000000000E+00   0.00000000000000E+00   0.00000000000000E+00   0.00000000000000E+00  -7.85759626141234E-35
      7.85759626141234E-35   0.00000000000000E+00   4.73298755510840E-15  -2.86440000000000E+00  -2.86439999999999E+00
      0.00000000000000E+00   0.00000000000000E+00   0.00000000000000E+00   0.00000000000000E+00   0.00000000000000E+00
     -4.73298755510840E-15
      2.50000000000000E-02
      0.00000000000000E+00   0.00000000000000E+00   0.00000000000000E+00   0.00000000000000E+00   1.87210341957290E-33
     -1.87210341957290E-33   0.00000000000000E+00   4.69472960310853E-15  -2.85000000000000E+00  -2.85000000000002E+00
      0.00000000000000E+00   0.00000000000000E+00   0.00000000000000E+00   0.00000000000000E+00   0.00000000000000E+00
     -4.69472960310854E-15
      4.08760000000000E-02
      0.00000000000000E+00   0.00000000000000E+00   0.00000000000000E+00   0.00000000000000E+00  -7.65818298307012E-35
      7.65818298307012E-35   0.00000000000000E+00   4.44183122745252E-15  -2.75474400000000E+00  -2.75474400000002E+00
      0.00000000000000E+00   0.00000000000000E+00   0.00000000000000E+00   0.00000000000000E+00   0.00000000000000E+00
     -4.44183122745254E-15
      5.00000000000000E-02
      0.00000000000000E+00   0.00000000000000E+00   0.00000000000000E+00   0.00000000000000E+00  -7.86749260242191E-35
      7.86749260242191E-35   0.00000000000000E+00   4.29663764206404E-15  -2.70000000000000E+00  -2.70000000000001E+00
      0.00000000000000E+00   0.00000000000000E+00   0.00000000000000E+00   0.00000000000000E+00   0.00000000000000E+00
     -4.29663764206406E-15
      7.00037600000000E-02
      0.00000000000000E+00   0.00000000000000E+00   0.00000000000000E+00   0.00000000000000E+00  -8.95830156760318E-35
      8.95830156760318E-35   0.00000000000000E+00   3.97872824428434E-15  -2.57997744000000E+00  -2.57997743999999E+00
      0.00000000000000E+00   0.00000000000000E+00   0.00000000000000E+00   0.00000000000000E+00   0.00000000000000E+00
     -3.97872824428429E-15
      7.50000000000000E-02
      0.00000000000000E+00   0.00000000000000E+00   0.00000000000000E+00   0.00000000000000E+00  -7.89859084111294E-35
      7.89859084111294E-35   0.00000000000000E+00   3.89942259966944E-15  -2.55000000000000E+00  -2.55000000000000E+00
      0.00000000000000E+00   0.00000000000000E+00   0.00000000000000E+00   0.00000000000000E+00   0.00000000000000E+00
     -3.89942259966944E-15
      1.00000000000000E-01
      0.00000000000000E+00   0.00000000000000E+00   0.00000000000000E+00   0.00000000000000E+00  -7.01944276640994E-34
      7.01944276640994E-34   0.00000000000000E+00   3.50325723574538E-15  -2.40000000000000E+00  -2.39999999999999E+00
      0.00000000000000E+00   0.00000000000000E+00   0.00000000000000E+00   0.00000000000000E+00   0.00000000000000E+00
     -3.50325723574538E-15
      1.25000000000000E-01
      0.00000000000000E+00   0.00000000000000E+00   0.00000000000000E+00   0.00000000000000E+00  -2.62957154012364E-33
      2.62957154012364E-33   0.00000000000000E+00   3.10838012367921E-15  -2.25000000000000E+00  -2.25000000000002E+00
      0.00000000000000E+00   0.00000000000000E+00   0.00000000000000E+00   0.00000000000000E+00   0.00000000000000E+00
     -3.10838012367916E-15
      1.50000000000000E-01
      0.00000000000000E+00   0.00000000000000E+00   0.00000000000000E+00   0.00000000000000E+00  -1.11424223570320E-32
      1.11424223570320E-32   0.00000000000000E+00   2.71513185256808E-15  -2.10000000000000E+00  -2.10000000000000E+00
      0.00000000000000E+00   0.00000000000000E+00   0.00000000000000E+00   0.00000000000000E+00   0.00000000000000E+00
     -2.71513185256804E-15
      1.75000000000000E-01
      0.00000000000000E+00   0.00000000000000E+00   0.00000000000000E+00   0.00000000000000E+00  -8.01368801539449E-35
      8.01368801539449E-35   0.00000000000000E+00   2.32401959169767E-15  -1.95000000000000E+00  -1.95000000000002E+00
      0.00000000000000E+00   0.00000000000000E+00   0.00000000000000E+00   0.00000000000000E+00   0.00000000000000E+00
     -2.32401959169762E-15
      2.00000000000000E-01
      0.00000000000000E+00   0.00000000000000E+00   0.00000000000000E+00   0.00000000000000E+00  -8.40335601048999E-35
      8.40335601048999E-35   0.00000000000000E+00   1.93583996026063E-15  -1.80000000000000E+00  -1.79999999999999E+00
      0.00000000000000E+00   0.00000000000000E+00   0.00000000000000E+00   0.00000000000000E+00   0.00000000000000E+00
     -1.93583996026061E-15
      2.25000000000000E-01
      0.00000000000000E+00   0.00000000000000E+00   0.00000000000000E+00   0.00000000000000E+00  -1.00906847326996E-34
      1.00906847326996E-34   0.00000000000000E+00   1.55193236950909E-15  -1.65000000000000E+00  -1.65000000000001E+00
      0.00000000000000E+00   0.00000000000000E+00   0.00000000000000E+00   0.00000000000000E+00   0.00000000000000E+00
     -1.55193236950911E-15
      2.50000000000000E-01
      0.00000000000000E+00   0.00000000000000E+00   0.00000000000000E+00   0.00000000000000E+00   1.50510364587792E-32
     -1.50510364587792E-32   0.00000000000000E+00   1.17475615211612E-15  -1.50000000000000E+00  -1.50000000000000E+00
      0.00000000000000E+00   0.00000000000000E+00   0.00000000000000E+00   0.00000000000000E+00   0.00000000000000E+00
     -1.17475615211612E-15
      2.75000000000000E-01
      0.00000000000000E+00   0.00000000000000E+00   0.00000000000000E+00   0.00000000000000E+00  -1.55191809493424E-32
      1.55191809493424E-32   0.00000000000000E+00   8.09380000389176E-16  -1.35000000000000E+00  -1.35000000000001E+00
      0.00000000000000E+00   0.00000000000000E+00   0.00000000000000E+00   0.00000000000000E+00   0.00000000000000E+00
     -8.09380000389180E-16
      3.00000000000000E-01
      0.00000000000000E+00   0.00000000000000E+00   0.00000000000000E+00   0.00000000000000E+00  -7.02807901157440E-33
      7.02807901157440E-33   0.00000000000000E+00   4.67938336516598E-16  -1.20000000000000E+00  -1.20000000000000E+00
      0.00000000000000E+00   0.00000000000000E+00   0.00000000000000E+00   0.00000000000000E+00   0.00000000000000E+00
     -4.67938336516600E-16
      3.25000000000000E-01
      0.00000000000000E+00   0.00000000000000E+00   0.00000000000000E+00   0.00000000000000E+00   2.09598244795940E-33
     -2.09598244795940E-33   0.00000000000000E+00   1.84298424812429E-16  -1.05000000000000E+00  -1.05000000000000E+00
      0.00000000000000E+00   0.00000000000000E+00   0.00000000000000E+00   0.00000000000000E+00   0.00000000000000E+00
     -1.84298424812427E-16
      3.50000000000000E-01
      0.00000000000000E+00   0.00000000000000E+00   0.00000000000000E+00   0.00000000000000E+00   8.29883023515816E-32
     -8.29883023515816E-32   0.00000000000000E+00   3.36424647522285E-17  -9.00000000000000E-01  -8.99999999999997E-01
      0.00000000000000E+00   0.00000000000000E+00   0.00000000000000E+00   0.00000000000000E+00   0.00000000000000E+00
     -3.36424647522292E-17
      3.75000000000000E-01
      0.00000000000000E+00   0.00000000000000E+00   0.00000000000000E+00   0.00000000000000E+00  -2.91872373973058E-34
      2.91872373973058E-34   0.00000000000000E+00  -3.56243750517482E-19  -7.50000000000000E-01  -7.49999999999997E-01
      0.00000000000000E+00   0.00000000000000E+00   0.00000000000000E+00   0.00000000000000E+00   0.00000000000000E+00
      3.56243750517454E-19
      4.00000000000000E-01
      0.00000000000000E+00   0.00000000000000E+00   0.00000000000000E+00   0.00000000000000E+00   2.16580025481016E-28
     -2.16580025481016E-28   0.00000000000000E+00  -1.28354653732028E-17  -6.00000000000000E-01  -5.99999999999998E-01
      0.00000000000000E+00   0.00000000000000E+00   0.00000000000000E+00   0.00000000000000E+00   0.00000000000000E+00
      1.28354653732027E-17
      4.25000000000000E-01
      0.00000000000000E+00   0.00000000000000E+00   0.00000000000000E+00   0.00000000000000E+00   1.22060501416681E-30
     -1.22060501416681E-30   0.00000000000000E+00  -2.41717648430095E-17  -4.49999999999999E-01  -4.49999999999998E-01
      0.00000000000000E+00   0.00000000000000E+00   0.00000000000000E+00   0.00000000000000E+00   0.00000000000000E+00
      2.41717648430098E-17
      4.50000000000000E-01
      0.00000000000000E+00   0.00000000000000E+00   0.00000000000000E+00   0.00000000000000E+00   4.49701779943730E-31
     -4.49701779943730E-31   0.00000000000000E+00  -3.54825990484895E-17  -2.99999999999999E-01  -2.99999999999999E-01
      0.00000000000000E+00   0.00000000000000E+00   0.00000000000000E+00   0.00000000000000E+00   0.00000000000000E+00
      3.54825990484893E-17
      4.75000000000000E-01
      0.00000000000000E+00   0.00000000000000E+00   0.00000000000000E+00   0.00000000000000E+00  -1.49751598169325E-29
      1.49751598169325E-29   0.00000000000000E+00  -5.37329734627098E-17  -1.49999999999999E-01  -1.49999999999999E-01
      0.00000000000000E+00   0.00000000000000E+00   0.00000000000000E+00   0.00000000000000E+00   0.00000000000000E+00
      5.37329734627091E-17
      5.00000000000000E-01
      0.00000000000000E+00   0.00000000000000E+00   0.00000000000000E+00   0.00000000000000E+00   2.97644576904718E-28
     -2.97644576904718E-28   0.00000000000000E+00  -1.89667919547217E-16   8.88178419700125E-16   8.88178419700122E-16
      0.00000000000000E+00   0.00000000000000E+00   0.00000000000000E+00   0.00000000000000E+00   0.00000000000000E+00
      1.89667919547217E-16
      5.25000000000000E-01
      0.00000000000000E+00   0.00000000000000E+00   0.00000000000000E+00   0.00000000000000E+00   5.88992987687682E-26
     -5.88992987687682E-26   0.00000000000000E+00  -4.72040553600895E-16   1.50000000000001E-01   1.50000000000000E-01
      0.00000000000000E+00   0.00000000000000E+00   0.00000000000000E+00   0.00000000000000E+00   0.00000000000000E+00
      4.72040553600895E-16
      5.50000000000000E-01
      0.00000000000000E+00   0.00000000000000E+00   0.00000000000000E+00   0.00000000000000E+00   3.33492258850001E-28
     -3.33492258850001E-28   0.00000000000000E+00  -8.13111192937563E-16   3.00000000000001E-01   2.99999999999999E-01
      0.00000000000000E+00   0.00000000000000E+00   0.00000000000000E+00   0.00000000000000E+00   0.00000000000000E+00
      8.13111192937556E-16
      5.75000000000000E-01
      0.00000000000000E+00   0.00000000000000E+00   0.00000000000000E+00   0.00000000000000E+00   5.79248336500717E-25
     -5.79248336500717E-25   0.00000000000000E+00  -1.17802370126634E-15   4.50000000000001E-01   4.49999999999999E-01
      0.00000000000000E+00   0.00000000000000E+00   0.00000000000000E+00   0.00000000000000E+00   0.00000000000000E+00
      1.17802370126635E-15
      6.00000000000000E-01
      0.00000000000000E+00   0.00000000000000E+00   0.00000000000000E+00   0.00000000000000E+00  -7.65218671189090E-26
      7.65218671189090E-26   0.00000000000000E+00  -1.55462931465836E-15   6.00000000000001E-01   5.99999999999999E-01
      0.00000000000000E+00   0.00000000000000E+00   0.00000000000000E+00   0.00000000000000E+00   0.00000000000000E+00
      1.55462931465837E-15
      6.25000000000000E-01
      0.00000000000000E+00   0.00000000000000E+00   0.00000000000000E+00   0.00000000000000E+00  -4.14431743132144E-24
      4.14431743132144E-24   0.00000000000000E+00  -1.93789693395908E-15   7.50000000000001E-01   7.49999999999998E-01
      0.00000000000000E+00   0.00000000000000E+00   0.00000000000000E+00   0.00000000000000E+00   0.00000000000000E+00
      1.93789693395907E-15
      6.50000000000000E-01
      0.00000000000000E+00   0.00000000000000E+00   0.00000000000000E+00   0.00000000000000E+00  -9.67160556555325E-25
      9.67160556555325E-25   0.00000000000000E+00  -2.32539458358397E-15   9.00000000000001E-01   8.99999999999997E-01
      0.00000000000000E+00   0.00000000000000E+00   0.00000000000000E+00   0.00000000000000E+00   0.00000000000000E+00
      2.32539458358397E-15
      6.75000000000000E-01
      0.00000000000000E+00   0.00000000000000E+00   0.00000000000000E+00   0.00000000000000E+00  -6.31316234984242E-25
      6.31316234984242E-25   0.00000000000000E+00  -2.71580032594523E-15   1.05000000000000E+00   1.05000000000000E+00
      0.00000000000000E+00   0.00000000000000E+00   0.00000000000000E+00   0.00000000000000E+00   0.00000000000000E+00
      2.71580032594524E-15
      7.00000000000000E-01
      0.00000000000000E+00   0.00000000000000E+00   0.00000000000000E+00   0.00000000000000E+00  -2.54799727273095E-26
      2.54799727273095E-26   0.00000000000000E+00  -3.10832817095139E-15   1.20000000000000E+00   1.20000000000000E+00
      0.00000000000000E+00   0.00000000000000E+00   0.00000000000000E+00   0.00000000000000E+00   0.00000000000000E+00
      3.10832817095140E-15
      7.25000000000000E-01
      0.00000000000000E+00   0.00000000000000E+00   0.00000000000000E+00   0.00000000000000E+00   4.94303057028678E-26
     -4.94303057028678E-26   0.00000000000000E+00  -3.50247776122320E-15   1.35000000000000E+00   1.35000000000001E+00
      0.00000000000000E+00   0.00000000000000E+00   0.00000000000000E+00   0.00000000000000E+00   0.00000000000000E+00
      3.50247776122317E-15
      7.50000000000000E-01
      0.00000000000000E+00   0.00000000000000E+00   0.00000000000000E+00   0.00000000000000E+00  -5.21005623410428E-26
      5.21005623410428E-26   0.00000000000000E+00  -3.89791301053856E-15   1.50000000000000E+00   1.50000000000000E+00
      0.00000000000000E+00   0.00000000000000E+00   0.00000000000000E+00   0.00000000000000E+00   0.00000000000000E+00
      3.89791301053856E-15
      7.75000000000000E-01
      0.00000000000000E+00   0.00000000000000E+00   0.00000000000000E+00   0.00000000000000E+00   1.05255933911915E-25
     -1.05255933911915E-25   0.00000000000000E+00  -4.29439851759417E-15   1.65000000000000E+00   1.65000000000001E+00
      0.00000000000000E+00   0.00000000000000E+00   0.00000000000000E+00   0.00000000000000E+00   0.00000000000000E+00
      4.29439851759412E-15
      8.00000000000000E-01
      0.00000000000000E+00   0.00000000000000E+00   0.00000000000000E+00   0.00000000000000E+00   5.15338231678353E-26
     -5.15338231678353E-26   0.00000000000000E+00  -4.69176396429978E-15   1.80000000000000E+00   1.79999999999999E+00
      0.00000000000000E+00   0.00000000000000E+00   0.00000000000000E+00   0.00000000000000E+00   0.00000000000000E+00
      4.69176396429980E-15
      8.25000000000000E-01
      0.00000000000000E+00   0.00000000000000E+00   0.00000000000000E+00   0.00000000000000E+00  -1.04415689444992E-25
      1.04415689444992E-25   0.00000000000000E+00  -5.08988304838886E-15   1.95000000000000E+00   1.95000000000002E+00
      0.00000000000000E+00   0.00000000000000E+00   0.00000000000000E+00   0.00000000000000E+00   0.00000000000000E+00
      5.08988304838888E-15
      8.50000000000000E-01
      0.00000000000000E+00   0.00000000000000E+00   0.00000000000000E+00   0.00000000000000E+00   5.75717218791062E-24
     -5.75717218791062E-24   0.00000000000000E+00  -5.48864692043753E-15   2.10000000000000E+00   2.10000000000000E+00
      0.00000000000000E+00   0.00000000000000E+00   0.00000000000000E+00   0.00000000000000E+00   0.00000000000000E+00
      5.48864692043758E-15
      8.75000000000000E-01
      0.00000000000000E+00   0.00000000000000E+00   0.00000000000000E+00   0.00000000000000E+00  -3.60379538415471E-25
      3.60379538415471E-25   0.00000000000000E+00  -5.88796416045886E-15   2.25000000000000E+00   2.25000000000002E+00
      0.00000000000000E+00   0.00000000000000E+00   0.00000000000000E+00   0.00000000000000E+00   0.00000000000000E+00
      5.88796416045884E-15
      9.00000000000000E-01
      0.00000000000000E+00   0.00000000000000E+00   0.00000000000000E+00   0.00000000000000E+00  -1.07146862746886E-24
      1.07146862746886E-24   0.00000000000000E+00  -6.28777219958055E-15   2.40000000000000E+00   2.39999999999999E+00
      0.00000000000000E+00   0.00000000000000E+00   0.00000000000000E+00   0.00000000000000E+00   0.00000000000000E+00
      6.28777219958049E-15
      9.25000000000000E-01
      0.00000000000000E+00   0.00000000000000E+00   0.00000000000000E+00   0.00000000000000E+00   1.76246007573339E-26
     -1.76246007573339E-26   0.00000000000000E+00  -6.68802033395943E-15   2.55000000000000E+00   2.55000000000000E+00
      0.00000000000000E+00   0.00000000000000E+00   0.00000000000000E+00   0.00000000000000E+00   0.00000000000000E+00
      6.68802033395944E-15
      9.50000000000001E-01
      0.00000000000000E+00   0.00000000000000E+00   0.00000000000000E+00   0.00000000000000E+00   2.60342492915456E-26
     -2.60342492915456E-26   0.00000000000000E+00  -7.08866641912606E-15   2.70000000000000E+00   2.70000000000002E+00
      0.00000000000000E+00   0.00000000000000E+00   0.00000000000000E+00   0.00000000000000E+00   0.00000000000000E+00
      7.08866641912605E-15
      9.75000000000001E-01
      0.00000000000000E+00   0.00000000000000E+00   0.00000000000000E+00   0.00000000000000E+00   1.61144264219507E-25
     -1.61144264219507E-25   0.00000000000000E+00  -7.48967504998086E-15   2.85000000000000E+00   2.85000000000002E+00
      0.00000000000000E+00   0.00000000000000E+00   0.00000000000000E+00   0.00000000000000E+00   0.00000000000000E+00
      7.48967504998078E-15
      1.00000000000000E+00
      0.00000000000000E+00   0.00000000000000E+00   0.00000000000000E+00   0.00000000000000E+00   3.69344157734825E-25
     -3.69344157734825E-25   0.00000000000000E+00  -7.89101617311434E-15   3.00000000000000E+00   2.99999999999999E+00
      0.00000000000000E+00   0.00000000000000E+00   0.00000000000000E+00   0.00000000000000E+00   0.00000000000000E+00
      7.89101617311417E-15
}
