DF-ISE text

Info {
  version   = 1.0
  type      = xyplot
  datasets  = [
    "time"
    "body OuterVoltage" "body InnerVoltage" "body QuasiFermiPotential" "body DisplacementCurrent" "body eCurrent"
    "body hCurrent" "body TotalCurrent" "body Charge" "gate OuterVoltage" "gate InnerVoltage"
    "gate QuasiFermiPotential" "gate DisplacementCurrent" "gate eCurrent" "gate hCurrent" "gate TotalCurrent"
    "gate Charge" ]
  functions = [
    Time
    OuterVoltage InnerVoltage QuasiFermiPotential DisplacementCurrent eCurrent
    hCurrent TotalCurrent Charge OuterVoltage InnerVoltage
    QuasiFermiPotential DisplacementCurrent eCurrent hCurrent TotalCurrent
    Charge ]
}

Data {
      0.00000000000000E+00
      0.00000000000000E+00   0.00000000000000E+00   0.00000000000000E+00   0.00000000000000E+00  -8.72032723743307E-33
      8.72032723743307E-33   0.00000000000000E+00   6.38580080116092E-15  -3.00000000000000E+00  -2.99999999999999E+00
      0.00000000000000E+00   0.00000000000000E+00   0.00000000000000E+00   0.00000000000000E+00   0.00000000000000E+00
     -6.38580080116090E-15
      1.00000000000000E-02
      0.00000000000000E+00   0.00000000000000E+00   0.00000000000000E+00   0.00000000000000E+00   1.12918745788483E-32
     -1.12918745788483E-32   0.00000000000000E+00   6.18461927210304E-15  -2.94000000000000E+00  -2.94000000000003E+00
      0.00000000000000E+00   0.00000000000000E+00   0.00000000000000E+00   0.00000000000000E+00   0.00000000000000E+00
     -6.18461927210315E-15
      2.26000000000000E-02
      0.00000000000000E+00   0.00000000000000E+00   0.00000000000000E+00   0.00000000000000E+00   6.08555743760110E-32
     -6.08555743760110E-32   0.00000000000000E+00   5.93133739374053E-15  -2.86440000000000E+00  -2.86439999999999E+00
      0.00000000000000E+00   0.00000000000000E+00   0.00000000000000E+00   0.00000000000000E+00   0.00000000000000E+00
     -5.93133739374052E-15
      2.50000000000000E-02
      0.00000000000000E+00   0.00000000000000E+00   0.00000000000000E+00   0.00000000000000E+00   2.22792499077986E-33
     -2.22792499077986E-33   0.00000000000000E+00   5.88312139509022E-15  -2.85000000000000E+00  -2.85000000000002E+00
      0.00000000000000E+00   0.00000000000000E+00   0.00000000000000E+00   0.00000000000000E+00   0.00000000000000E+00
     -5.88312139509024E-15
      4.08760000000000E-02
      0.00000000000000E+00   0.00000000000000E+00   0.00000000000000E+00   0.00000000000000E+00  -2.03203409779868E-35
      2.03203409779868E-35   0.00000000000000E+00   5.56441248906313E-15  -2.75474400000000E+00  -2.75474400000002E+00
      0.00000000000000E+00   0.00000000000000E+00   0.00000000000000E+00   0.00000000000000E+00   0.00000000000000E+00
     -5.56441248906315E-15
      5.00000000000000E-02
      0.00000000000000E+00   0.00000000000000E+00   0.00000000000000E+00   0.00000000000000E+00  -3.23261196252264E-35
      3.23261196252264E-35   0.00000000000000E+00   5.38144773186149E-15  -2.70000000000000E+00  -2.70000000000001E+00
      0.00000000000000E+00   0.00000000000000E+00   0.00000000000000E+00   0.00000000000000E+00   0.00000000000000E+00
     -5.38144773186144E-15
      7.00037600000000E-02
      0.00000000000000E+00   0.00000000000000E+00   0.00000000000000E+00   0.00000000000000E+00  -7.60693170687435E-35
      7.60693170687435E-35   0.00000000000000E+00   4.98086601972396E-15  -2.57997744000000E+00  -2.57997743999999E+00
      0.00000000000000E+00   0.00000000000000E+00   0.00000000000000E+00   0.00000000000000E+00   0.00000000000000E+00
     -4.98086601972394E-15
      7.50000000000000E-02
      0.00000000000000E+00   0.00000000000000E+00   0.00000000000000E+00   0.00000000000000E+00  -3.19915888468005E-35
      3.19915888468005E-35   0.00000000000000E+00   4.88094375747418E-15  -2.55000000000000E+00  -2.55000000000000E+00
      0.00000000000000E+00   0.00000000000000E+00   0.00000000000000E+00   0.00000000000000E+00   0.00000000000000E+00
     -4.88094375747419E-15
      1.00000000000000E-01
      0.00000000000000E+00   0.00000000000000E+00   0.00000000000000E+00   0.00000000000000E+00  -2.03358022754026E-33
      2.03358022754026E-33   0.00000000000000E+00   4.38182769622883E-15  -2.40000000000000E+00  -2.39999999999999E+00
      0.00000000000000E+00   0.00000000000000E+00   0.00000000000000E+00   0.00000000000000E+00   0.00000000000000E+00
     -4.38182769622885E-15
      1.25000000000000E-01
      0.00000000000000E+00   0.00000000000000E+00   0.00000000000000E+00   0.00000000000000E+00  -6.95237328315862E-33
      6.95237328315862E-33   0.00000000000000E+00   3.88439016174575E-15  -2.25000000000000E+00  -2.25000000000002E+00
      0.00000000000000E+00   0.00000000000000E+00   0.00000000000000E+00   0.00000000000000E+00   0.00000000000000E+00
     -3.88439016174572E-15
      1.50000000000000E-01
      0.00000000000000E+00   0.00000000000000E+00   0.00000000000000E+00   0.00000000000000E+00  -3.21699036590409E-32
      3.21699036590409E-32   0.00000000000000E+00   3.38904720587850E-15  -2.10000000000000E+00  -2.10000000000000E+00
      0.00000000000000E+00   0.00000000000000E+00   0.00000000000000E+00   0.00000000000000E+00   0.00000000000000E+00
     -3.38904720587852E-15
      1.75000000000000E-01
      0.00000000000000E+00   0.00000000000000E+00   0.00000000000000E+00   0.00000000000000E+00  -3.67494419992389E-34
      3.67494419992389E-34   0.00000000000000E+00   2.89642067575805E-15  -1.95000000000000E+00  -1.95000000000002E+00
      0.00000000000000E+00   0.00000000000000E+00   0.00000000000000E+00   0.00000000000000E+00   0.00000000000000E+00
     -2.89642067575802E-15
      2.00000000000000E-01
      0.00000000000000E+00   0.00000000000000E+00   0.00000000000000E+00   0.00000000000000E+00  -3.30633472015500E-33
      3.30633472015500E-33   0.00000000000000E+00   2.40749172470124E-15  -1.80000000000000E+00  -1.79999999999999E+00
      0.00000000000000E+00   0.00000000000000E+00   0.00000000000000E+00   0.00000000000000E+00   0.00000000000000E+00
     -2.40749172470123E-15
      2.25000000000000E-01
      0.00000000000000E+00   0.00000000000000E+00   0.00000000000000E+00   0.00000000000000E+00  -4.37713598809988E-32
      4.37713598809988E-32   0.00000000000000E+00   1.92392294231512E-15  -1.65000000000000E+00  -1.65000000000001E+00
      0.00000000000000E+00   0.00000000000000E+00   0.00000000000000E+00   0.00000000000000E+00   0.00000000000000E+00
     -1.92392294231510E-15
      2.50000000000000E-01
      0.00000000000000E+00   0.00000000000000E+00   0.00000000000000E+00   0.00000000000000E+00   4.12961790048936E-30
     -4.12961790048936E-30   0.00000000000000E+00   1.44880973320561E-15  -1.50000000000000E+00  -1.50000000000000E+00
      0.00000000000000E+00   0.00000000000000E+00   0.00000000000000E+00   0.00000000000000E+00   0.00000000000000E+00
     -1.44880973320564E-15
      2.75000000000000E-01
      0.00000000000000E+00   0.00000000000000E+00   0.00000000000000E+00   0.00000000000000E+00   1.17897876602683E-35
     -1.17897876602683E-35   0.00000000000000E+00   9.88680313613695E-16  -1.35000000000000E+00  -1.35000000000001E+00
      0.00000000000000E+00   0.00000000000000E+00   0.00000000000000E+00   0.00000000000000E+00   0.00000000000000E+00
     -9.88680313613698E-16
      3.00000000000000E-01
      0.00000000000000E+00   0.00000000000000E+00   0.00000000000000E+00   0.00000000000000E+00  -3.90768922305168E-31
      3.90768922305168E-31   0.00000000000000E+00   5.59708605914798E-16  -1.20000000000000E+00  -1.20000000000000E+00
      0.00000000000000E+00   0.00000000000000E+00   0.00000000000000E+00   0.00000000000000E+00   0.00000000000000E+00
     -5.59708605914798E-16
      3.25000000000000E-01
      0.00000000000000E+00   0.00000000000000E+00   0.00000000000000E+00   0.00000000000000E+00   1.55912238013161E-31
     -1.55912238013161E-31   0.00000000000000E+00   2.08757261286375E-16  -1.05000000000000E+00  -1.05000000000000E+00
      0.00000000000000E+00   0.00000000000000E+00   0.00000000000000E+00   0.00000000000000E+00   0.00000000000000E+00
     -2.08757261286373E-16
      3.50000000000000E-01
      0.00000000000000E+00   0.00000000000000E+00   0.00000000000000E+00   0.00000000000000E+00  -3.88361806656171E-35
      3.88361806656171E-35   0.00000000000000E+00   3.47981195510721E-17  -9.00000000000000E-01  -8.99999999999997E-01
      0.00000000000000E+00   0.00000000000000E+00   0.00000000000000E+00   0.00000000000000E+00   0.00000000000000E+00
     -3.47981195510721E-17
      3.75000000000000E-01
      0.00000000000000E+00   0.00000000000000E+00   0.00000000000000E+00   0.00000000000000E+00  -1.22974195464150E-34
      1.22974195464150E-34   0.00000000000000E+00  -3.66846548307660E-19  -7.50000000000000E-01  -7.49999999999997E-01
      0.00000000000000E+00   0.00000000000000E+00   0.00000000000000E+00   0.00000000000000E+00   0.00000000000000E+00
      3.66846548307631E-19
      4.00000000000000E-01
      0.00000000000000E+00   0.00000000000000E+00   0.00000000000000E+00   0.00000000000000E+00   3.81094134428589E-28
     -3.81094134428589E-28   0.00000000000000E+00  -1.29067441856255E-17  -6.00000000000000E-01  -5.99999999999998E-01
      0.00000000000000E+00   0.00000000000000E+00   0.00000000000000E+00   0.00000000000000E+00   0.00000000000000E+00
      1.29067441856257E-17
      4.25000000000000E-01
      0.00000000000000E+00   0.00000000000000E+00   0.00000000000000E+00   0.00000000000000E+00   2.84662384124993E-30
     -2.84662384124993E-30   0.00000000000000E+00  -2.42954260151531E-17  -4.49999999999999E-01  -4.49999999999998E-01
      0.00000000000000E+00   0.00000000000000E+00   0.00000000000000E+00   0.00000000000000E+00   0.00000000000000E+00
      2.42954260151528E-17
      4.50000000000000E-01
      0.00000000000000E+00   0.00000000000000E+00   0.00000000000000E+00   0.00000000000000E+00   1.02974608967956E-30
     -1.02974608967956E-30   0.00000000000000E+00  -3.56628295924433E-17  -2.99999999999999E-01  -2.99999999999999E-01
      0.00000000000000E+00   0.00000000000000E+00   0.00000000000000E+00   0.00000000000000E+00   0.00000000000000E+00
      3.56628295924433E-17
      4.75000000000000E-01
      0.00000000000000E+00   0.00000000000000E+00   0.00000000000000E+00   0.00000000000000E+00  -3.66333569319686E-28
      3.66333569319686E-28   0.00000000000000E+00  -5.48543511773415E-17  -1.49999999999999E-01  -1.49999999999999E-01
      0.00000000000000E+00   0.00000000000000E+00   0.00000000000000E+00   0.00000000000000E+00   0.00000000000000E+00
      5.48543511773417E-17
      5.00000000000000E-01
      0.00000000000000E+00   0.00000000000000E+00   0.00000000000000E+00   0.00000000000000E+00  -6.02258685608937E-26
      6.02258685608937E-26   0.00000000000000E+00  -2.14447756019583E-16   8.88178419700125E-16   8.88178419700122E-16
      0.00000000000000E+00   0.00000000000000E+00   0.00000000000000E+00   0.00000000000000E+00   0.00000000000000E+00
      2.14447756019578E-16
      5.25000000000000E-01
      0.00000000000000E+00   0.00000000000000E+00   0.00000000000000E+00   0.00000000000000E+00   6.33380291413257E-25
     -6.33380291413257E-25   0.00000000000000E+00  -5.64462714638110E-16   1.50000000000001E-01   1.50000000000000E-01
      0.00000000000000E+00   0.00000000000000E+00   0.00000000000000E+00   0.00000000000000E+00   0.00000000000000E+00
      5.64462714638108E-16
      5.50000000000000E-01
      0.00000000000000E+00   0.00000000000000E+00   0.00000000000000E+00   0.00000000000000E+00   1.31372249071026E-25
     -1.31372249071026E-25   0.00000000000000E+00  -9.92947234324984E-16   3.00000000000001E-01   2.99999999999999E-01
      0.00000000000000E+00   0.00000000000000E+00   0.00000000000000E+00   0.00000000000000E+00   0.00000000000000E+00
      9.92947234325000E-16
      5.75000000000000E-01
      0.00000000000000E+00   0.00000000000000E+00   0.00000000000000E+00   0.00000000000000E+00  -1.37592221149737E-24
      1.37592221149737E-24   0.00000000000000E+00  -1.45229226894122E-15   4.50000000000001E-01   4.49999999999999E-01
      0.00000000000000E+00   0.00000000000000E+00   0.00000000000000E+00   0.00000000000000E+00   0.00000000000000E+00
      1.45229226894124E-15
      6.00000000000000E-01
      0.00000000000000E+00   0.00000000000000E+00   0.00000000000000E+00   0.00000000000000E+00   9.91232124597528E-25
     -9.91232124597528E-25   0.00000000000000E+00  -1.92642797402097E-15   6.00000000000001E-01   5.99999999999999E-01
      0.00000000000000E+00   0.00000000000000E+00   0.00000000000000E+00   0.00000000000000E+00   0.00000000000000E+00
      1.92642797402098E-15
      6.25000000000000E-01
      0.00000000000000E+00   0.00000000000000E+00   0.00000000000000E+00   0.00000000000000E+00  -4.89697645678737E-24
      4.89697645678737E-24   0.00000000000000E+00  -2.40891455918409E-15   7.50000000000001E-01   7.49999999999998E-01
      0.00000000000000E+00   0.00000000000000E+00   0.00000000000000E+00   0.00000000000000E+00   0.00000000000000E+00
      2.40891455918412E-15
      6.50000000000000E-01
      0.00000000000000E+00   0.00000000000000E+00   0.00000000000000E+00   0.00000000000000E+00  -2.03540565199285E-23
      2.03540565199285E-23   0.00000000000000E+00  -2.89670638040252E-15   9.00000000000001E-01   8.99999999999997E-01
      0.00000000000000E+00   0.00000000000000E+00   0.00000000000000E+00   0.00000000000000E+00   0.00000000000000E+00
      2.89670638040251E-15
      6.75000000000000E-01
      0.00000000000000E+00   0.00000000000000E+00   0.00000000000000E+00   0.00000000000000E+00  -6.40610264264094E-24
      6.40610264264094E-24   0.00000000000000E+00  -3.38816748426985E-15   1.05000000000000E+00   1.05000000000000E+00
      0.00000000000000E+00   0.00000000000000E+00   0.00000000000000E+00   0.00000000000000E+00   0.00000000000000E+00
      3.38816748426982E-15
      7.00000000000000E-01
      0.00000000000000E+00   0.00000000000000E+00   0.00000000000000E+00   0.00000000000000E+00   4.92699783249683E-24
     -4.92699783249683E-24   0.00000000000000E+00  -3.88233349343210E-15   1.20000000000000E+00   1.20000000000000E+00
      0.00000000000000E+00   0.00000000000000E+00   0.00000000000000E+00   0.00000000000000E+00   0.00000000000000E+00
      3.88233349343207E-15
      7.25000000000000E-01
      0.00000000000000E+00   0.00000000000000E+00   0.00000000000000E+00   0.00000000000000E+00   1.22269696192217E-23
     -1.22269696192217E-23   0.00000000000000E+00  -4.37859257494941E-15   1.35000000000000E+00   1.35000000000001E+00
      0.00000000000000E+00   0.00000000000000E+00   0.00000000000000E+00   0.00000000000000E+00   0.00000000000000E+00
      4.37859257494935E-15
      7.50000000000000E-01
      0.00000000000000E+00   0.00000000000000E+00   0.00000000000000E+00   0.00000000000000E+00  -1.97725198749783E-24
      1.97725198749783E-24   0.00000000000000E+00  -4.87653598842640E-15   1.50000000000000E+00   1.50000000000000E+00
      0.00000000000000E+00   0.00000000000000E+00   0.00000000000000E+00   0.00000000000000E+00   0.00000000000000E+00
      4.87653598842634E-15
      7.75000000000000E-01
      0.00000000000000E+00   0.00000000000000E+00   0.00000000000000E+00   0.00000000000000E+00   2.01874127226640E-24
     -2.01874127226640E-24   0.00000000000000E+00  -5.37587383505518E-15   1.65000000000000E+00   1.65000000000001E+00
      0.00000000000000E+00   0.00000000000000E+00   0.00000000000000E+00   0.00000000000000E+00   0.00000000000000E+00
      5.37587383505517E-15
      8.00000000000000E-01
      0.00000000000000E+00   0.00000000000000E+00   0.00000000000000E+00   0.00000000000000E+00  -1.55398742553982E-23
      1.55398742553982E-23   0.00000000000000E+00  -5.87639246432007E-15   1.80000000000000E+00   1.79999999999999E+00
      0.00000000000000E+00   0.00000000000000E+00   0.00000000000000E+00   0.00000000000000E+00   0.00000000000000E+00
      5.87639246432006E-15
      8.25000000000000E-01
      0.00000000000000E+00   0.00000000000000E+00   0.00000000000000E+00   0.00000000000000E+00  -2.02295614220921E-24
      2.02295614220921E-24   0.00000000000000E+00  -6.37790406392236E-15   1.95000000000000E+00   1.95000000000002E+00
      0.00000000000000E+00   0.00000000000000E+00   0.00000000000000E+00   0.00000000000000E+00   0.00000000000000E+00
      6.37790406392224E-15
      8.50000000000000E-01
      0.00000000000000E+00   0.00000000000000E+00   0.00000000000000E+00   0.00000000000000E+00  -4.22399895556218E-24
      4.22399895556218E-24   0.00000000000000E+00  -6.88026586718149E-15   2.10000000000000E+00   2.10000000000000E+00
      0.00000000000000E+00   0.00000000000000E+00   0.00000000000000E+00   0.00000000000000E+00   0.00000000000000E+00
      6.88026586718146E-15
      8.75000000000000E-01
      0.00000000000000E+00   0.00000000000000E+00   0.00000000000000E+00   0.00000000000000E+00  -8.58769274718698E-24
      8.58769274718698E-24   0.00000000000000E+00  -7.38338064069267E-15   2.25000000000000E+00   2.25000000000002E+00
      0.00000000000000E+00   0.00000000000000E+00   0.00000000000000E+00   0.00000000000000E+00   0.00000000000000E+00
      7.38338064069261E-15
      9.00000000000000E-01
      0.00000000000000E+00   0.00000000000000E+00   0.00000000000000E+00   0.00000000000000E+00  -5.23887979667832E-24
      5.23887979667832E-24   0.00000000000000E+00  -7.88716924318843E-15   2.40000000000000E+00   2.39999999999999E+00
      0.00000000000000E+00   0.00000000000000E+00   0.00000000000000E+00   0.00000000000000E+00   0.00000000000000E+00
      7.88716924318850E-15
      9.25000000000000E-01
      0.00000000000000E+00   0.00000000000000E+00   0.00000000000000E+00   0.00000000000000E+00   2.51773503032672E-25
     -2.51773503032672E-25   0.00000000000000E+00  -8.39156676939295E-15   2.55000000000000E+00   2.55000000000000E+00
      0.00000000000000E+00   0.00000000000000E+00   0.00000000000000E+00   0.00000000000000E+00   0.00000000000000E+00
      8.39156676939281E-15
      9.50000000000001E-01
      0.00000000000000E+00   0.00000000000000E+00   0.00000000000000E+00   0.00000000000000E+00  -6.78920478465690E-24
      6.78920478465690E-24   0.00000000000000E+00  -8.89651909352417E-15   2.70000000000000E+00   2.70000000000002E+00
      0.00000000000000E+00   0.00000000000000E+00   0.00000000000000E+00   0.00000000000000E+00   0.00000000000000E+00
      8.89651909352439E-15
      9.75000000000001E-01
      0.00000000000000E+00   0.00000000000000E+00   0.00000000000000E+00   0.00000000000000E+00  -1.16823747174076E-25
      1.16823747174076E-25   0.00000000000000E+00  -9.40197928517260E-15   2.85000000000000E+00   2.85000000000002E+00
      0.00000000000000E+00   0.00000000000000E+00   0.00000000000000E+00   0.00000000000000E+00   0.00000000000000E+00
      9.40197928517253E-15
      1.00000000000000E+00
      0.00000000000000E+00   0.00000000000000E+00   0.00000000000000E+00   0.00000000000000E+00  -3.39585811154411E-24
      3.39585811154411E-24   0.00000000000000E+00  -9.90790825037618E-15   3.00000000000000E+00   2.99999999999999E+00
      0.00000000000000E+00   0.00000000000000E+00   0.00000000000000E+00   0.00000000000000E+00   0.00000000000000E+00
      9.90790825037608E-15
}
