DF-ISE text

Info {
  version   = 1.0
  type      = xyplot
  datasets  = [
    "time"
    "body OuterVoltage" "body InnerVoltage" "body QuasiFermiPotential" "body DisplacementCurrent" "body eCurrent"
    "body hCurrent" "body TotalCurrent" "body Charge" "gate OuterVoltage" "gate InnerVoltage"
    "gate QuasiFermiPotential" "gate DisplacementCurrent" "gate eCurrent" "gate hCurrent" "gate TotalCurrent"
    "gate Charge" ]
  functions = [
    Time
    OuterVoltage InnerVoltage QuasiFermiPotential DisplacementCurrent eCurrent
    hCurrent TotalCurrent Charge OuterVoltage InnerVoltage
    QuasiFermiPotential DisplacementCurrent eCurrent hCurrent TotalCurrent
    Charge ]
}

Data {
      0.00000000000000E+00
      0.00000000000000E+00   0.00000000000000E+00   0.00000000000000E+00   0.00000000000000E+00  -6.87759846901955E-35
      6.87759846901955E-35   0.00000000000000E+00   4.51949661502294E-15  -3.00000000000000E+00  -2.99999999999999E+00
      0.00000000000000E+00   0.00000000000000E+00   0.00000000000000E+00   0.00000000000000E+00   0.00000000000000E+00
     -4.51949661502292E-15
      1.00000000000000E-02
      0.00000000000000E+00   0.00000000000000E+00   0.00000000000000E+00   0.00000000000000E+00  -6.86909767509938E-35
      6.86909767509938E-35   0.00000000000000E+00   4.37819313710005E-15  -2.94000000000000E+00  -2.94000000000003E+00
      0.00000000000000E+00   0.00000000000000E+00   0.00000000000000E+00   0.00000000000000E+00   0.00000000000000E+00
     -4.37819313710003E-15
      2.26000000000000E-02
      0.00000000000000E+00   0.00000000000000E+00   0.00000000000000E+00   0.00000000000000E+00  -6.89153352113285E-35
      6.89153352113285E-35   0.00000000000000E+00   4.20028846858610E-15  -2.86440000000000E+00  -2.86439999999999E+00
      0.00000000000000E+00   0.00000000000000E+00   0.00000000000000E+00   0.00000000000000E+00   0.00000000000000E+00
     -4.20028846858607E-15
      2.50000000000000E-02
      0.00000000000000E+00   0.00000000000000E+00   0.00000000000000E+00   0.00000000000000E+00   1.94733832157059E-33
     -1.94733832157059E-33   0.00000000000000E+00   4.16642015424541E-15  -2.85000000000000E+00  -2.85000000000002E+00
      0.00000000000000E+00   0.00000000000000E+00   0.00000000000000E+00   0.00000000000000E+00   0.00000000000000E+00
     -4.16642015424537E-15
      4.08760000000000E-02
      0.00000000000000E+00   0.00000000000000E+00   0.00000000000000E+00   0.00000000000000E+00  -6.61908542528593E-35
      6.61908542528593E-35   0.00000000000000E+00   3.94253841495404E-15  -2.75474400000000E+00  -2.75474400000002E+00
      0.00000000000000E+00   0.00000000000000E+00   0.00000000000000E+00   0.00000000000000E+00   0.00000000000000E+00
     -3.94253841495408E-15
      5.00000000000000E-02
      0.00000000000000E+00   0.00000000000000E+00   0.00000000000000E+00   0.00000000000000E+00  -6.94014399249056E-35
      6.94014399249056E-35   0.00000000000000E+00   3.81400383552085E-15  -2.70000000000000E+00  -2.70000000000001E+00
      0.00000000000000E+00   0.00000000000000E+00   0.00000000000000E+00   0.00000000000000E+00   0.00000000000000E+00
     -3.81400383552088E-15
      7.00037600000000E-02
      0.00000000000000E+00   0.00000000000000E+00   0.00000000000000E+00   0.00000000000000E+00  -1.07020795531613E-34
      1.07020795531613E-34   0.00000000000000E+00   3.53257184305540E-15  -2.57997744000000E+00  -2.57997743999999E+00
      0.00000000000000E+00   0.00000000000000E+00   0.00000000000000E+00   0.00000000000000E+00   0.00000000000000E+00
     -3.53257184305534E-15
      7.50000000000000E-02
      0.00000000000000E+00   0.00000000000000E+00   0.00000000000000E+00   0.00000000000000E+00  -6.89617194628933E-35
      6.89617194628933E-35   0.00000000000000E+00   3.46236646358089E-15  -2.55000000000000E+00  -2.55000000000000E+00
      0.00000000000000E+00   0.00000000000000E+00   0.00000000000000E+00   0.00000000000000E+00   0.00000000000000E+00
     -3.46236646358084E-15
      1.00000000000000E-01
      0.00000000000000E+00   0.00000000000000E+00   0.00000000000000E+00   0.00000000000000E+00  -2.09420640898072E-33
      2.09420640898072E-33   0.00000000000000E+00   3.11166727198906E-15  -2.40000000000000E+00  -2.39999999999999E+00
      0.00000000000000E+00   0.00000000000000E+00   0.00000000000000E+00   0.00000000000000E+00   0.00000000000000E+00
     -3.11166727198910E-15
      1.25000000000000E-01
      0.00000000000000E+00   0.00000000000000E+00   0.00000000000000E+00   0.00000000000000E+00  -7.76991189421731E-33
      7.76991189421731E-33   0.00000000000000E+00   2.76212560897914E-15  -2.25000000000000E+00  -2.25000000000002E+00
      0.00000000000000E+00   0.00000000000000E+00   0.00000000000000E+00   0.00000000000000E+00   0.00000000000000E+00
     -2.76212560897916E-15
      1.50000000000000E-01
      0.00000000000000E+00   0.00000000000000E+00   0.00000000000000E+00   0.00000000000000E+00  -3.29559774747287E-32
      3.29559774747287E-32   0.00000000000000E+00   2.41405401488001E-15  -2.10000000000000E+00  -2.10000000000000E+00
      0.00000000000000E+00   0.00000000000000E+00   0.00000000000000E+00   0.00000000000000E+00   0.00000000000000E+00
     -2.41405401487998E-15
      1.75000000000000E-01
      0.00000000000000E+00   0.00000000000000E+00   0.00000000000000E+00   0.00000000000000E+00  -9.14503910693738E-35
      9.14503910693738E-35   0.00000000000000E+00   2.06791673755739E-15  -1.95000000000000E+00  -1.95000000000002E+00
      0.00000000000000E+00   0.00000000000000E+00   0.00000000000000E+00   0.00000000000000E+00   0.00000000000000E+00
     -2.06791673755738E-15
      2.00000000000000E-01
      0.00000000000000E+00   0.00000000000000E+00   0.00000000000000E+00   0.00000000000000E+00  -2.70499343842362E-34
      2.70499343842362E-34   0.00000000000000E+00   1.72443983028089E-15  -1.80000000000000E+00  -1.79999999999999E+00
      0.00000000000000E+00   0.00000000000000E+00   0.00000000000000E+00   0.00000000000000E+00   0.00000000000000E+00
     -1.72443983028092E-15
      2.25000000000000E-01
      0.00000000000000E+00   0.00000000000000E+00   0.00000000000000E+00   0.00000000000000E+00  -2.00291942411518E-33
      2.00291942411518E-33   0.00000000000000E+00   1.38483451693152E-15  -1.65000000000000E+00  -1.65000000000001E+00
      0.00000000000000E+00   0.00000000000000E+00   0.00000000000000E+00   0.00000000000000E+00   0.00000000000000E+00
     -1.38483451693151E-15
      2.50000000000000E-01
      0.00000000000000E+00   0.00000000000000E+00   0.00000000000000E+00   0.00000000000000E+00   5.65988888550167E-33
     -5.65988888550167E-33   0.00000000000000E+00   1.05129436929691E-15  -1.50000000000000E+00  -1.50000000000000E+00
      0.00000000000000E+00   0.00000000000000E+00   0.00000000000000E+00   0.00000000000000E+00   0.00000000000000E+00
     -1.05129436929691E-15
      2.75000000000000E-01
      0.00000000000000E+00   0.00000000000000E+00   0.00000000000000E+00   0.00000000000000E+00   3.48047889382615E-33
     -3.48047889382615E-33   0.00000000000000E+00   7.28239929224010E-16  -1.35000000000000E+00  -1.35000000000001E+00
      0.00000000000000E+00   0.00000000000000E+00   0.00000000000000E+00   0.00000000000000E+00   0.00000000000000E+00
     -7.28239929224007E-16
      3.00000000000000E-01
      0.00000000000000E+00   0.00000000000000E+00   0.00000000000000E+00   0.00000000000000E+00  -7.88114459669064E-32
      7.88114459669064E-32   0.00000000000000E+00   4.25937466693163E-16  -1.20000000000000E+00  -1.20000000000000E+00
      0.00000000000000E+00   0.00000000000000E+00   0.00000000000000E+00   0.00000000000000E+00   0.00000000000000E+00
     -4.25937466693164E-16
      3.25000000000000E-01
      0.00000000000000E+00   0.00000000000000E+00   0.00000000000000E+00   0.00000000000000E+00  -5.90006392201574E-34
      5.90006392201574E-34   0.00000000000000E+00   1.72507332000872E-16  -1.05000000000000E+00  -1.05000000000000E+00
      0.00000000000000E+00   0.00000000000000E+00   0.00000000000000E+00   0.00000000000000E+00   0.00000000000000E+00
     -1.72507332000873E-16
      3.50000000000000E-01
      0.00000000000000E+00   0.00000000000000E+00   0.00000000000000E+00   0.00000000000000E+00  -8.32787376917928E-35
      8.32787376917928E-35   0.00000000000000E+00   3.29951332799640E-17  -9.00000000000000E-01  -8.99999999999997E-01
      0.00000000000000E+00   0.00000000000000E+00   0.00000000000000E+00   0.00000000000000E+00   0.00000000000000E+00
     -3.29951332799635E-17
      3.75000000000000E-01
      0.00000000000000E+00   0.00000000000000E+00   0.00000000000000E+00   0.00000000000000E+00  -2.49897946977153E-34
      2.49897946977153E-34   0.00000000000000E+00  -3.49868271289173E-19  -7.50000000000000E-01  -7.49999999999997E-01
      0.00000000000000E+00   0.00000000000000E+00   0.00000000000000E+00   0.00000000000000E+00   0.00000000000000E+00
      3.49868271289137E-19
      4.00000000000000E-01
      0.00000000000000E+00   0.00000000000000E+00   0.00000000000000E+00   0.00000000000000E+00   1.63859572730257E-28
     -1.63859572730257E-28   0.00000000000000E+00  -1.27930687705257E-17  -6.00000000000000E-01  -5.99999999999998E-01
      0.00000000000000E+00   0.00000000000000E+00   0.00000000000000E+00   0.00000000000000E+00   0.00000000000000E+00
      1.27930687705258E-17
      4.25000000000000E-01
      0.00000000000000E+00   0.00000000000000E+00   0.00000000000000E+00   0.00000000000000E+00   1.79949037423830E-30
     -1.79949037423830E-30   0.00000000000000E+00  -2.40983066493702E-17  -4.49999999999999E-01  -4.49999999999998E-01
      0.00000000000000E+00   0.00000000000000E+00   0.00000000000000E+00   0.00000000000000E+00   0.00000000000000E+00
      2.40983066493700E-17
      4.50000000000000E-01
      0.00000000000000E+00   0.00000000000000E+00   0.00000000000000E+00   0.00000000000000E+00   5.98870319465135E-31
     -5.98870319465135E-31   0.00000000000000E+00  -3.53757303199409E-17  -2.99999999999999E-01  -2.99999999999999E-01
      0.00000000000000E+00   0.00000000000000E+00   0.00000000000000E+00   0.00000000000000E+00   0.00000000000000E+00
      3.53757303199409E-17
      4.75000000000000E-01
      0.00000000000000E+00   0.00000000000000E+00   0.00000000000000E+00   0.00000000000000E+00   1.44157800018633E-28
     -1.44157800018633E-28   0.00000000000000E+00  -5.31140991759388E-17  -1.49999999999999E-01  -1.49999999999999E-01
      0.00000000000000E+00   0.00000000000000E+00   0.00000000000000E+00   0.00000000000000E+00   0.00000000000000E+00
      5.31140991759390E-17
      5.00000000000000E-01
      0.00000000000000E+00   0.00000000000000E+00   0.00000000000000E+00   0.00000000000000E+00   8.57863077307999E-26
     -8.57863077307999E-26   0.00000000000000E+00  -1.77751689230687E-16   8.88178419700125E-16   8.88178419700122E-16
      0.00000000000000E+00   0.00000000000000E+00   0.00000000000000E+00   0.00000000000000E+00   0.00000000000000E+00
      1.77751689230689E-16
      5.25000000000000E-01
      0.00000000000000E+00   0.00000000000000E+00   0.00000000000000E+00   0.00000000000000E+00   1.31457563762470E-26
     -1.31457563762470E-26   0.00000000000000E+00  -4.29748208857261E-16   1.50000000000001E-01   1.50000000000000E-01
      0.00000000000000E+00   0.00000000000000E+00   0.00000000000000E+00   0.00000000000000E+00   0.00000000000000E+00
      4.29748208857263E-16
      5.50000000000000E-01
      0.00000000000000E+00   0.00000000000000E+00   0.00000000000000E+00   0.00000000000000E+00   8.09100536311068E-26
     -8.09100536311068E-26   0.00000000000000E+00  -7.31699589429132E-16   3.00000000000001E-01   2.99999999999999E-01
      0.00000000000000E+00   0.00000000000000E+00   0.00000000000000E+00   0.00000000000000E+00   0.00000000000000E+00
      7.31699589429138E-16
      5.75000000000000E-01
      0.00000000000000E+00   0.00000000000000E+00   0.00000000000000E+00   0.00000000000000E+00   3.67267897777401E-26
     -3.67267897777401E-26   0.00000000000000E+00  -1.05439057171375E-15   4.50000000000001E-01   4.49999999999999E-01
      0.00000000000000E+00   0.00000000000000E+00   0.00000000000000E+00   0.00000000000000E+00   0.00000000000000E+00
      1.05439057171375E-15
      6.00000000000000E-01
      0.00000000000000E+00   0.00000000000000E+00   0.00000000000000E+00   0.00000000000000E+00  -8.58114835403011E-27
      8.58114835403011E-27   0.00000000000000E+00  -1.38748945506998E-15   6.00000000000001E-01   5.99999999999999E-01
      0.00000000000000E+00   0.00000000000000E+00   0.00000000000000E+00   0.00000000000000E+00   0.00000000000000E+00
      1.38748945506996E-15
      6.25000000000000E-01
      0.00000000000000E+00   0.00000000000000E+00   0.00000000000000E+00   0.00000000000000E+00  -9.14596250601358E-25
      9.14596250601358E-25   0.00000000000000E+00  -1.72659419252470E-15   7.50000000000001E-01   7.49999999999998E-01
      0.00000000000000E+00   0.00000000000000E+00   0.00000000000000E+00   0.00000000000000E+00   0.00000000000000E+00
      1.72659419252467E-15
      6.50000000000000E-01
      0.00000000000000E+00   0.00000000000000E+00   0.00000000000000E+00   0.00000000000000E+00  -1.06507424788699E-25
      1.06507424788699E-25   0.00000000000000E+00  -2.06953158426489E-15   9.00000000000001E-01   8.99999999999997E-01
      0.00000000000000E+00   0.00000000000000E+00   0.00000000000000E+00   0.00000000000000E+00   0.00000000000000E+00
      2.06953158426490E-15
      6.75000000000000E-01
      0.00000000000000E+00   0.00000000000000E+00   0.00000000000000E+00   0.00000000000000E+00  -6.66610525386658E-25
      6.66610525386658E-25   0.00000000000000E+00  -2.41510490777555E-15   1.05000000000000E+00   1.05000000000000E+00
      0.00000000000000E+00   0.00000000000000E+00   0.00000000000000E+00   0.00000000000000E+00   0.00000000000000E+00
      2.41510490777554E-15
      7.00000000000000E-01
      0.00000000000000E+00   0.00000000000000E+00   0.00000000000000E+00   0.00000000000000E+00   5.80594544630933E-24
     -5.80594544630933E-24   0.00000000000000E+00  -2.76259748578428E-15   1.20000000000000E+00   1.20000000000000E+00
      0.00000000000000E+00   0.00000000000000E+00   0.00000000000000E+00   0.00000000000000E+00   0.00000000000000E+00
      2.76259748578431E-15
      7.25000000000000E-01
      0.00000000000000E+00   0.00000000000000E+00   0.00000000000000E+00   0.00000000000000E+00   1.38345180375280E-24
     -1.38345180375280E-24   0.00000000000000E+00  -3.11155164142492E-15   1.35000000000000E+00   1.35000000000001E+00
      0.00000000000000E+00   0.00000000000000E+00   0.00000000000000E+00   0.00000000000000E+00   0.00000000000000E+00
      3.11155164142499E-15
      7.50000000000000E-01
      0.00000000000000E+00   0.00000000000000E+00   0.00000000000000E+00   0.00000000000000E+00  -1.54955661280759E-23
      1.54955661280759E-23   0.00000000000000E+00  -3.46165906234087E-15   1.50000000000000E+00   1.50000000000000E+00
      0.00000000000000E+00   0.00000000000000E+00   0.00000000000000E+00   0.00000000000000E+00   0.00000000000000E+00
      3.46165906234090E-15
      7.75000000000000E-01
      0.00000000000000E+00   0.00000000000000E+00   0.00000000000000E+00   0.00000000000000E+00   9.09127652990267E-25
     -9.09127652990267E-25   0.00000000000000E+00  -3.81270251190586E-15   1.65000000000000E+00   1.65000000000001E+00
      0.00000000000000E+00   0.00000000000000E+00   0.00000000000000E+00   0.00000000000000E+00   0.00000000000000E+00
      3.81270251190588E-15
      8.00000000000000E-01
      0.00000000000000E+00   0.00000000000000E+00   0.00000000000000E+00   0.00000000000000E+00   6.87370567658696E-25
     -6.87370567658696E-25   0.00000000000000E+00  -4.16452574564166E-15   1.80000000000000E+00   1.79999999999999E+00
      0.00000000000000E+00   0.00000000000000E+00   0.00000000000000E+00   0.00000000000000E+00   0.00000000000000E+00
      4.16452574564167E-15
      8.25000000000000E-01
      0.00000000000000E+00   0.00000000000000E+00   0.00000000000000E+00   0.00000000000000E+00   2.04597077132698E-24
     -2.04597077132698E-24   0.00000000000000E+00  -4.51701127529672E-15   1.95000000000000E+00   1.95000000000002E+00
      0.00000000000000E+00   0.00000000000000E+00   0.00000000000000E+00   0.00000000000000E+00   0.00000000000000E+00
      4.51701127529676E-15
      8.50000000000000E-01
      0.00000000000000E+00   0.00000000000000E+00   0.00000000000000E+00   0.00000000000000E+00  -1.80217371222581E-25
      1.80217371222581E-25   0.00000000000000E+00  -4.87006984226196E-15   2.10000000000000E+00   2.10000000000000E+00
      0.00000000000000E+00   0.00000000000000E+00   0.00000000000000E+00   0.00000000000000E+00   0.00000000000000E+00
      4.87006984226192E-15
      8.75000000000000E-01
      0.00000000000000E+00   0.00000000000000E+00   0.00000000000000E+00   0.00000000000000E+00   2.41296286668064E-25
     -2.41296286668064E-25   0.00000000000000E+00  -5.22362380445496E-15   2.25000000000000E+00   2.25000000000002E+00
      0.00000000000000E+00   0.00000000000000E+00   0.00000000000000E+00   0.00000000000000E+00   0.00000000000000E+00
      5.22362380445498E-15
      9.00000000000000E-01
      0.00000000000000E+00   0.00000000000000E+00   0.00000000000000E+00   0.00000000000000E+00   7.03346127278778E-24
     -7.03346127278778E-24   0.00000000000000E+00  -5.57761190407068E-15   2.40000000000000E+00   2.39999999999999E+00
      0.00000000000000E+00   0.00000000000000E+00   0.00000000000000E+00   0.00000000000000E+00   0.00000000000000E+00
      5.57761190407066E-15
      9.25000000000000E-01
      0.00000000000000E+00   0.00000000000000E+00   0.00000000000000E+00   0.00000000000000E+00  -4.31112661689713E-24
      4.31112661689713E-24   0.00000000000000E+00  -5.93198886879938E-15   2.55000000000000E+00   2.55000000000000E+00
      0.00000000000000E+00   0.00000000000000E+00   0.00000000000000E+00   0.00000000000000E+00   0.00000000000000E+00
      5.93198886879937E-15
      9.50000000000001E-01
      0.00000000000000E+00   0.00000000000000E+00   0.00000000000000E+00   0.00000000000000E+00  -3.42684863984325E-24
      3.42684863984325E-24   0.00000000000000E+00  -6.28671664067078E-15   2.70000000000000E+00   2.70000000000002E+00
      0.00000000000000E+00   0.00000000000000E+00   0.00000000000000E+00   0.00000000000000E+00   0.00000000000000E+00
      6.28671664067084E-15
      9.75000000000001E-01
      0.00000000000000E+00   0.00000000000000E+00   0.00000000000000E+00   0.00000000000000E+00   3.96101781333160E-24
     -3.96101781333160E-24   0.00000000000000E+00  -6.64176411023588E-15   2.85000000000000E+00   2.85000000000002E+00
      0.00000000000000E+00   0.00000000000000E+00   0.00000000000000E+00   0.00000000000000E+00   0.00000000000000E+00
      6.64176411023594E-15
      1.00000000000000E+00
      0.00000000000000E+00   0.00000000000000E+00   0.00000000000000E+00   0.00000000000000E+00   1.99778563785225E-25
     -1.99778563785225E-25   0.00000000000000E+00  -6.99710539845659E-15   3.00000000000000E+00   2.99999999999999E+00
      0.00000000000000E+00   0.00000000000000E+00   0.00000000000000E+00   0.00000000000000E+00   0.00000000000000E+00
      6.99710539845655E-15
}
