DF-ISE text

Info {
  version   = 1.0
  type      = xyplot
  datasets  = [
    "time"
    "body OuterVoltage" "body InnerVoltage" "body QuasiFermiPotential" "body DisplacementCurrent" "body eCurrent"
    "body hCurrent" "body TotalCurrent" "body Charge" "gate OuterVoltage" "gate InnerVoltage"
    "gate QuasiFermiPotential" "gate DisplacementCurrent" "gate eCurrent" "gate hCurrent" "gate TotalCurrent"
    "gate Charge" ]
  functions = [
    Time
    OuterVoltage InnerVoltage QuasiFermiPotential DisplacementCurrent eCurrent
    hCurrent TotalCurrent Charge OuterVoltage InnerVoltage
    QuasiFermiPotential DisplacementCurrent eCurrent hCurrent TotalCurrent
    Charge ]
}

Data {
      0.00000000000000E+00
      0.00000000000000E+00   0.00000000000000E+00   0.00000000000000E+00   0.00000000000000E+00  -3.17503139914253E-35
      3.17503139914253E-35   0.00000000000000E+00   3.57888875360026E-15  -3.00000000000000E+00  -2.99999999999999E+00
      0.00000000000000E+00   0.00000000000000E+00   0.00000000000000E+00   0.00000000000000E+00   0.00000000000000E+00
     -3.57888875360030E-15
      1.00000000000000E-02
      0.00000000000000E+00   0.00000000000000E+00   0.00000000000000E+00   0.00000000000000E+00  -3.18896695893223E-35
      3.18896695893223E-35   0.00000000000000E+00   3.46757014791204E-15  -2.94000000000000E+00  -2.94000000000003E+00
      0.00000000000000E+00   0.00000000000000E+00   0.00000000000000E+00   0.00000000000000E+00   0.00000000000000E+00
     -3.46757014791208E-15
      2.26000000000000E-02
      0.00000000000000E+00   0.00000000000000E+00   0.00000000000000E+00   0.00000000000000E+00  -3.15847265241966E-35
      3.15847265241966E-35   0.00000000000000E+00   3.32741529431333E-15  -2.86440000000000E+00  -2.86439999999999E+00
      0.00000000000000E+00   0.00000000000000E+00   0.00000000000000E+00   0.00000000000000E+00   0.00000000000000E+00
     -3.32741529431335E-15
      2.50000000000000E-02
      0.00000000000000E+00   0.00000000000000E+00   0.00000000000000E+00   0.00000000000000E+00   2.04581283971843E-33
     -2.04581283971843E-33   0.00000000000000E+00   3.30073333413822E-15  -2.85000000000000E+00  -2.85000000000002E+00
      0.00000000000000E+00   0.00000000000000E+00   0.00000000000000E+00   0.00000000000000E+00   0.00000000000000E+00
     -3.30073333413827E-15
      4.08760000000000E-02
      0.00000000000000E+00   0.00000000000000E+00   0.00000000000000E+00   0.00000000000000E+00  -3.35135173732602E-35
      3.35135173732602E-35   0.00000000000000E+00   3.12435468834668E-15  -2.75474400000000E+00  -2.75474400000002E+00
      0.00000000000000E+00   0.00000000000000E+00   0.00000000000000E+00   0.00000000000000E+00   0.00000000000000E+00
     -3.12435468834664E-15
      5.00000000000000E-02
      0.00000000000000E+00   0.00000000000000E+00   0.00000000000000E+00   0.00000000000000E+00  -3.19453305431511E-35
      3.19453305431511E-35   0.00000000000000E+00   3.02309175990029E-15  -2.70000000000000E+00  -2.70000000000001E+00
      0.00000000000000E+00   0.00000000000000E+00   0.00000000000000E+00   0.00000000000000E+00   0.00000000000000E+00
     -3.02309175990029E-15
      7.00037600000000E-02
      0.00000000000000E+00   0.00000000000000E+00   0.00000000000000E+00   0.00000000000000E+00  -6.06483941026128E-35
      6.06483941026128E-35   0.00000000000000E+00   2.80137161782623E-15  -2.57997744000000E+00  -2.57997743999999E+00
      0.00000000000000E+00   0.00000000000000E+00   0.00000000000000E+00   0.00000000000000E+00   0.00000000000000E+00
     -2.80137161782624E-15
      7.50000000000000E-02
      0.00000000000000E+00   0.00000000000000E+00   0.00000000000000E+00   0.00000000000000E+00  -3.18148929272709E-35
      3.18148929272709E-35   0.00000000000000E+00   2.74606192419418E-15  -2.55000000000000E+00  -2.55000000000000E+00
      0.00000000000000E+00   0.00000000000000E+00   0.00000000000000E+00   0.00000000000000E+00   0.00000000000000E+00
     -2.74606192419415E-15
      1.00000000000000E-01
      0.00000000000000E+00   0.00000000000000E+00   0.00000000000000E+00   0.00000000000000E+00  -1.38687200916982E-33
      1.38687200916982E-33   0.00000000000000E+00   2.46977463514962E-15  -2.40000000000000E+00  -2.39999999999999E+00
      0.00000000000000E+00   0.00000000000000E+00   0.00000000000000E+00   0.00000000000000E+00   0.00000000000000E+00
     -2.46977463514962E-15
      1.25000000000000E-01
      0.00000000000000E+00   0.00000000000000E+00   0.00000000000000E+00   0.00000000000000E+00  -5.00874551490707E-33
      5.00874551490707E-33   0.00000000000000E+00   2.19440953289176E-15  -2.25000000000000E+00  -2.25000000000002E+00
      0.00000000000000E+00   0.00000000000000E+00   0.00000000000000E+00   0.00000000000000E+00   0.00000000000000E+00
     -2.19440953289176E-15
      1.50000000000000E-01
      0.00000000000000E+00   0.00000000000000E+00   0.00000000000000E+00   0.00000000000000E+00  -1.95635745499866E-32
      1.95635745499866E-32   0.00000000000000E+00   1.92022151058850E-15  -2.10000000000000E+00  -2.10000000000000E+00
      0.00000000000000E+00   0.00000000000000E+00   0.00000000000000E+00   0.00000000000000E+00   0.00000000000000E+00
     -1.92022151058850E-15
      1.75000000000000E-01
      0.00000000000000E+00   0.00000000000000E+00   0.00000000000000E+00   0.00000000000000E+00  -3.49362991127408E-35
      3.49362991127408E-35   0.00000000000000E+00   1.64758674614570E-15  -1.95000000000000E+00  -1.95000000000002E+00
      0.00000000000000E+00   0.00000000000000E+00   0.00000000000000E+00   0.00000000000000E+00   0.00000000000000E+00
     -1.64758674614572E-15
      2.00000000000000E-01
      0.00000000000000E+00   0.00000000000000E+00   0.00000000000000E+00   0.00000000000000E+00  -5.80869010447598E-35
      5.80869010447598E-35   0.00000000000000E+00   1.37708766932115E-15  -1.80000000000000E+00  -1.79999999999999E+00
      0.00000000000000E+00   0.00000000000000E+00   0.00000000000000E+00   0.00000000000000E+00   0.00000000000000E+00
     -1.37708766932115E-15
      2.25000000000000E-01
      0.00000000000000E+00   0.00000000000000E+00   0.00000000000000E+00   0.00000000000000E+00  -3.87492883826752E-35
      3.87492883826752E-35   0.00000000000000E+00   1.10968142989126E-15  -1.65000000000000E+00  -1.65000000000001E+00
      0.00000000000000E+00   0.00000000000000E+00   0.00000000000000E+00   0.00000000000000E+00   0.00000000000000E+00
     -1.10968142989126E-15
      2.50000000000000E-01
      0.00000000000000E+00   0.00000000000000E+00   0.00000000000000E+00   0.00000000000000E+00   6.18628775650009E-35
     -6.18628775650009E-35   0.00000000000000E+00   8.47065548700745E-16  -1.50000000000000E+00  -1.50000000000000E+00
      0.00000000000000E+00   0.00000000000000E+00   0.00000000000000E+00   0.00000000000000E+00   0.00000000000000E+00
     -8.47065548700750E-16
      2.75000000000000E-01
      0.00000000000000E+00   0.00000000000000E+00   0.00000000000000E+00   0.00000000000000E+00   5.71352870455442E-32
     -5.71352870455442E-32   0.00000000000000E+00   5.92572055694558E-16  -1.35000000000000E+00  -1.35000000000001E+00
      0.00000000000000E+00   0.00000000000000E+00   0.00000000000000E+00   0.00000000000000E+00   0.00000000000000E+00
     -5.92572055694555E-16
      3.00000000000000E-01
      0.00000000000000E+00   0.00000000000000E+00   0.00000000000000E+00   0.00000000000000E+00   1.79196641628453E-34
     -1.79196641628453E-34   0.00000000000000E+00   3.53719536606448E-16  -1.20000000000000E+00  -1.20000000000000E+00
      0.00000000000000E+00   0.00000000000000E+00   0.00000000000000E+00   0.00000000000000E+00   0.00000000000000E+00
     -3.53719536606447E-16
      3.25000000000000E-01
      0.00000000000000E+00   0.00000000000000E+00   0.00000000000000E+00   0.00000000000000E+00   4.24081559067058E-33
     -4.24081559067058E-33   0.00000000000000E+00   1.50596131413643E-16  -1.05000000000000E+00  -1.05000000000000E+00
      0.00000000000000E+00   0.00000000000000E+00   0.00000000000000E+00   0.00000000000000E+00   0.00000000000000E+00
     -1.50596131413643E-16
      3.50000000000000E-01
      0.00000000000000E+00   0.00000000000000E+00   0.00000000000000E+00   0.00000000000000E+00  -3.71987918400833E-33
      3.71987918400833E-33   0.00000000000000E+00   3.15733429115502E-17  -9.00000000000000E-01  -8.99999999999997E-01
      0.00000000000000E+00   0.00000000000000E+00   0.00000000000000E+00   0.00000000000000E+00   0.00000000000000E+00
     -3.15733429115506E-17
      3.75000000000000E-01
      0.00000000000000E+00   0.00000000000000E+00   0.00000000000000E+00   0.00000000000000E+00  -1.25185593192904E-34
      1.25185593192904E-34   0.00000000000000E+00  -3.36215796956505E-19  -7.50000000000000E-01  -7.49999999999997E-01
      0.00000000000000E+00   0.00000000000000E+00   0.00000000000000E+00   0.00000000000000E+00   0.00000000000000E+00
      3.36215796956439E-19
      4.00000000000000E-01
      0.00000000000000E+00   0.00000000000000E+00   0.00000000000000E+00   0.00000000000000E+00   8.37087642517920E-29
     -8.37087642517920E-29   0.00000000000000E+00  -1.26942965132680E-17  -6.00000000000000E-01  -5.99999999999998E-01
      0.00000000000000E+00   0.00000000000000E+00   0.00000000000000E+00   0.00000000000000E+00   0.00000000000000E+00
      1.26942965132680E-17
      4.25000000000000E-01
      0.00000000000000E+00   0.00000000000000E+00   0.00000000000000E+00   0.00000000000000E+00   1.39620128716588E-30
     -1.39620128716588E-30   0.00000000000000E+00  -2.39261882218128E-17  -4.49999999999999E-01  -4.49999999999998E-01
      0.00000000000000E+00   0.00000000000000E+00   0.00000000000000E+00   0.00000000000000E+00   0.00000000000000E+00
      2.39261882218127E-17
      4.50000000000000E-01
      0.00000000000000E+00   0.00000000000000E+00   0.00000000000000E+00   0.00000000000000E+00   2.83830939164128E-31
     -2.83830939164128E-31   0.00000000000000E+00  -3.51251208638563E-17  -2.99999999999999E-01  -2.99999999999999E-01
      0.00000000000000E+00   0.00000000000000E+00   0.00000000000000E+00   0.00000000000000E+00   0.00000000000000E+00
      3.51251208638564E-17
      4.75000000000000E-01
      0.00000000000000E+00   0.00000000000000E+00   0.00000000000000E+00   0.00000000000000E+00  -1.12428304014558E-29
      1.12428304014558E-29   0.00000000000000E+00  -5.17822141536072E-17  -1.49999999999999E-01  -1.49999999999999E-01
      0.00000000000000E+00   0.00000000000000E+00   0.00000000000000E+00   0.00000000000000E+00   0.00000000000000E+00
      5.17822141536069E-17
      5.00000000000000E-01
      0.00000000000000E+00   0.00000000000000E+00   0.00000000000000E+00   0.00000000000000E+00  -9.00544577869697E-26
      9.00544577869697E-26   0.00000000000000E+00  -1.55677477250767E-16   8.88178419700125E-16   8.88178419700122E-16
      0.00000000000000E+00   0.00000000000000E+00   0.00000000000000E+00   0.00000000000000E+00   0.00000000000000E+00
      1.55677477250768E-16
      5.25000000000000E-01
      0.00000000000000E+00   0.00000000000000E+00   0.00000000000000E+00   0.00000000000000E+00  -1.39403841334789E-26
      1.39403841334789E-26   0.00000000000000E+00  -3.57060206036339E-16   1.50000000000001E-01   1.50000000000000E-01
      0.00000000000000E+00   0.00000000000000E+00   0.00000000000000E+00   0.00000000000000E+00   0.00000000000000E+00
      3.57060206036337E-16
      5.50000000000000E-01
      0.00000000000000E+00   0.00000000000000E+00   0.00000000000000E+00   0.00000000000000E+00   1.32503974622883E-25
     -1.32503974622883E-25   0.00000000000000E+00  -5.95542719435590E-16   3.00000000000001E-01   2.99999999999999E-01
      0.00000000000000E+00   0.00000000000000E+00   0.00000000000000E+00   0.00000000000000E+00   0.00000000000000E+00
      5.95542719435587E-16
      5.75000000000000E-01
      0.00000000000000E+00   0.00000000000000E+00   0.00000000000000E+00   0.00000000000000E+00   3.57426215977174E-28
     -3.57426215977174E-28   0.00000000000000E+00  -8.49785785873873E-16   4.50000000000001E-01   4.49999999999999E-01
      0.00000000000000E+00   0.00000000000000E+00   0.00000000000000E+00   0.00000000000000E+00   0.00000000000000E+00
      8.49785785873867E-16
      6.00000000000000E-01
      0.00000000000000E+00   0.00000000000000E+00   0.00000000000000E+00   0.00000000000000E+00  -2.07751610919505E-24
      2.07751610919505E-24   0.00000000000000E+00  -1.11213620469639E-15   6.00000000000001E-01   5.99999999999999E-01
      0.00000000000000E+00   0.00000000000000E+00   0.00000000000000E+00   0.00000000000000E+00   0.00000000000000E+00
      1.11213620469639E-15
      6.25000000000000E-01
      0.00000000000000E+00   0.00000000000000E+00   0.00000000000000E+00   0.00000000000000E+00  -1.80505703698698E-25
      1.80505703698698E-25   0.00000000000000E+00  -1.37924804128695E-15   7.50000000000001E-01   7.49999999999998E-01
      0.00000000000000E+00   0.00000000000000E+00   0.00000000000000E+00   0.00000000000000E+00   0.00000000000000E+00
      1.37924804128695E-15
      6.50000000000000E-01
      0.00000000000000E+00   0.00000000000000E+00   0.00000000000000E+00   0.00000000000000E+00  -1.02834424885568E-24
      1.02834424885568E-24   0.00000000000000E+00  -1.64942831367894E-15   9.00000000000001E-01   8.99999999999997E-01
      0.00000000000000E+00   0.00000000000000E+00   0.00000000000000E+00   0.00000000000000E+00   0.00000000000000E+00
      1.64942831367894E-15
      6.75000000000000E-01
      0.00000000000000E+00   0.00000000000000E+00   0.00000000000000E+00   0.00000000000000E+00  -2.87911003560038E-25
      2.87911003560038E-25   0.00000000000000E+00  -1.92172622570891E-15   1.05000000000000E+00   1.05000000000000E+00
      0.00000000000000E+00   0.00000000000000E+00   0.00000000000000E+00   0.00000000000000E+00   0.00000000000000E+00
      1.92172622570893E-15
      7.00000000000000E-01
      0.00000000000000E+00   0.00000000000000E+00   0.00000000000000E+00   0.00000000000000E+00   7.20062823907753E-26
     -7.20062823907753E-26   0.00000000000000E+00  -2.19556471880064E-15   1.20000000000000E+00   1.20000000000000E+00
      0.00000000000000E+00   0.00000000000000E+00   0.00000000000000E+00   0.00000000000000E+00   0.00000000000000E+00
      2.19556471880063E-15
      7.25000000000000E-01
      0.00000000000000E+00   0.00000000000000E+00   0.00000000000000E+00   0.00000000000000E+00  -1.65948516976329E-25
      1.65948516976329E-25   0.00000000000000E+00  -2.47057161144578E-15   1.35000000000000E+00   1.35000000000001E+00
      0.00000000000000E+00   0.00000000000000E+00   0.00000000000000E+00   0.00000000000000E+00   0.00000000000000E+00
      2.47057161144578E-15
      7.50000000000000E-01
      0.00000000000000E+00   0.00000000000000E+00   0.00000000000000E+00   0.00000000000000E+00   2.01887177760008E-26
     -2.01887177760008E-26   0.00000000000000E+00  -2.74649488912631E-15   1.50000000000000E+00   1.50000000000000E+00
      0.00000000000000E+00   0.00000000000000E+00   0.00000000000000E+00   0.00000000000000E+00   0.00000000000000E+00
      2.74649488912631E-15
      7.75000000000000E-01
      0.00000000000000E+00   0.00000000000000E+00   0.00000000000000E+00   0.00000000000000E+00  -1.15882612700126E-25
      1.15882612700126E-25   0.00000000000000E+00  -3.02315701546239E-15   1.65000000000000E+00   1.65000000000001E+00
      0.00000000000000E+00   0.00000000000000E+00   0.00000000000000E+00   0.00000000000000E+00   0.00000000000000E+00
      3.02315701546241E-15
      8.00000000000000E-01
      0.00000000000000E+00   0.00000000000000E+00   0.00000000000000E+00   0.00000000000000E+00   1.41570112045763E-24
     -1.41570112045763E-24   0.00000000000000E+00  -3.30042868790582E-15   1.80000000000000E+00   1.79999999999999E+00
      0.00000000000000E+00   0.00000000000000E+00   0.00000000000000E+00   0.00000000000000E+00   0.00000000000000E+00
      3.30042868790584E-15
      8.25000000000000E-01
      0.00000000000000E+00   0.00000000000000E+00   0.00000000000000E+00   0.00000000000000E+00   4.77610620551353E-24
     -4.77610620551353E-24   0.00000000000000E+00  -3.57821316247724E-15   1.95000000000000E+00   1.95000000000002E+00
      0.00000000000000E+00   0.00000000000000E+00   0.00000000000000E+00   0.00000000000000E+00   0.00000000000000E+00
      3.57821316247723E-15
      8.50000000000000E-01
      0.00000000000000E+00   0.00000000000000E+00   0.00000000000000E+00   0.00000000000000E+00   9.77126794341381E-25
     -9.77126794341381E-25   0.00000000000000E+00  -3.85643648408461E-15   2.10000000000000E+00   2.10000000000000E+00
      0.00000000000000E+00   0.00000000000000E+00   0.00000000000000E+00   0.00000000000000E+00   0.00000000000000E+00
      3.85643648408461E-15
      8.75000000000000E-01
      0.00000000000000E+00   0.00000000000000E+00   0.00000000000000E+00   0.00000000000000E+00  -3.47309841952574E-25
      3.47309841952574E-25   0.00000000000000E+00  -4.13504070028936E-15   2.25000000000000E+00   2.25000000000002E+00
      0.00000000000000E+00   0.00000000000000E+00   0.00000000000000E+00   0.00000000000000E+00   0.00000000000000E+00
      4.13504070028931E-15
      9.00000000000000E-01
      0.00000000000000E+00   0.00000000000000E+00   0.00000000000000E+00   0.00000000000000E+00   8.58843967028445E-26
     -8.58843967028445E-26   0.00000000000000E+00  -4.41397997644680E-15   2.40000000000000E+00   2.39999999999999E+00
      0.00000000000000E+00   0.00000000000000E+00   0.00000000000000E+00   0.00000000000000E+00   0.00000000000000E+00
      4.41397997644681E-15
      9.25000000000000E-01
      0.00000000000000E+00   0.00000000000000E+00   0.00000000000000E+00   0.00000000000000E+00  -4.20304098297077E-24
      4.20304098297077E-24   0.00000000000000E+00  -4.69321758977467E-15   2.55000000000000E+00   2.55000000000000E+00
      0.00000000000000E+00   0.00000000000000E+00   0.00000000000000E+00   0.00000000000000E+00   0.00000000000000E+00
      4.69321758977463E-15
      9.50000000000001E-01
      0.00000000000000E+00   0.00000000000000E+00   0.00000000000000E+00   0.00000000000000E+00  -9.60334384696751E-26
      9.60334384696751E-26   0.00000000000000E+00  -4.97272331364057E-15   2.70000000000000E+00   2.70000000000002E+00
      0.00000000000000E+00   0.00000000000000E+00   0.00000000000000E+00   0.00000000000000E+00   0.00000000000000E+00
      4.97272331364057E-15
      9.75000000000001E-01
      0.00000000000000E+00   0.00000000000000E+00   0.00000000000000E+00   0.00000000000000E+00   6.81571771288138E-25
     -6.81571771288138E-25   0.00000000000000E+00  -5.25246580794377E-15   2.85000000000000E+00   2.85000000000002E+00
      0.00000000000000E+00   0.00000000000000E+00   0.00000000000000E+00   0.00000000000000E+00   0.00000000000000E+00
      5.25246580794378E-15
      1.00000000000000E+00
      0.00000000000000E+00   0.00000000000000E+00   0.00000000000000E+00   0.00000000000000E+00   5.83773150148326E-25
     -5.83773150148326E-25   0.00000000000000E+00  -5.53242031784490E-15   3.00000000000000E+00   2.99999999999999E+00
      0.00000000000000E+00   0.00000000000000E+00   0.00000000000000E+00   0.00000000000000E+00   0.00000000000000E+00
      5.53242031784485E-15
}
