DF-ISE text

Info {
  version   = 1.0
  type      = xyplot
  datasets  = [
    "time"
    "gate OuterVoltage" "gate InnerVoltage" "gate QuasiFermiPotential" "gate DisplacementCurrent" "gate eCurrent"
    "gate hCurrent" "gate TotalCurrent" "gate Charge" "source OuterVoltage" "source InnerVoltage"
    "source QuasiFermiPotential" "source DisplacementCurrent" "source eCurrent" "source hCurrent" "source TotalCurrent"
    "source Charge" "substrate OuterVoltage" "substrate InnerVoltage" "substrate QuasiFermiPotential" "substrate DisplacementCurrent"
    "substrate eCurrent" "substrate hCurrent" "substrate TotalCurrent" "substrate Charge" "drain OuterVoltage"
    "drain InnerVoltage" "drain QuasiFermiPotential" "drain DisplacementCurrent" "drain eCurrent" "drain hCurrent"
    "drain TotalCurrent" "drain Charge" ]
  functions = [
    Time
    OuterVoltage InnerVoltage QuasiFermiPotential DisplacementCurrent eCurrent
    hCurrent TotalCurrent Charge OuterVoltage InnerVoltage
    QuasiFermiPotential DisplacementCurrent eCurrent hCurrent TotalCurrent
    Charge OuterVoltage InnerVoltage QuasiFermiPotential DisplacementCurrent
    eCurrent hCurrent TotalCurrent Charge OuterVoltage
    InnerVoltage QuasiFermiPotential DisplacementCurrent eCurrent hCurrent
    TotalCurrent Charge ]
}

Data {
      1.00000000000000E-03
      5.00000000000000E+00   5.00000000000000E+00   0.00000000000000E+00   0.00000000000000E+00   0.00000000000000E+00
      0.00000000000000E+00   0.00000000000000E+00   3.27581138540355E-14   0.00000000000000E+00   0.00000000000000E+00
      0.00000000000000E+00   0.00000000000000E+00  -3.06597557571533E-06  -1.78834993973459E-25  -3.06597557571533E-06
      6.87634151520564E-16   0.00000000000000E+00   0.00000000000000E+00   0.00000000000000E+00   0.00000000000000E+00
      4.02227615774154E-15  -1.05720844459184E-18   4.02121894929695E-15  -3.41338813667268E-14   3.00000000000000E-03
      3.00000000000000E-03   0.00000000000000E+00   0.00000000000000E+00   3.06597557169409E-06   1.54064435515292E-21
      3.06597557169409E-06   6.88133361171036E-16
      2.40000000000000E-03
      5.00000000000000E+00   5.00000000000000E+00   0.00000000000000E+00   0.00000000000000E+00   0.00000000000000E+00
      0.00000000000000E+00   0.00000000000000E+00   3.27439919409213E-14   0.00000000000000E+00   0.00000000000000E+00
      0.00000000000000E+00   0.00000000000000E+00  -7.34856500977222E-06  -4.28639654330348E-25  -7.34856500977222E-06
      6.87621779035512E-16   0.00000000000000E+00   0.00000000000000E+00   0.00000000000000E+00   0.00000000000000E+00
      3.22753218029751E-14  -2.47880666392877E-18   3.22728429963111E-14  -3.41205969611463E-14   7.20000000000000E-03
      7.20000000000000E-03   0.00000000000000E+00   0.00000000000000E+00   7.34856497749931E-06   3.41619970188409E-21
      7.34856497749932E-06   6.88983241189778E-16
      4.36000000000000E-03
      5.00000000000000E+00   5.00000000000000E+00   0.00000000000000E+00   0.00000000000000E+00   0.00000000000000E+00
      0.00000000000000E+00   0.00000000000000E+00   3.27242279866529E-14   0.00000000000000E+00   0.00000000000000E+00
      0.00000000000000E+00   0.00000000000000E+00  -1.33238137197599E-05  -7.77190141964410E-25  -1.33238137197599E-05
      6.87604476770717E-16   0.00000000000000E+00   0.00000000000000E+00   0.00000000000000E+00   0.00000000000000E+00
      2.76635523348871E-17  -4.36266870745584E-18   2.33008836274312E-17  -3.41020052241095E-14   1.30800000000000E-02
      1.30800000000000E-02   0.00000000000000E+00   0.00000000000000E+00   1.33238137197364E-05   5.57468973349735E-21
      1.33238137197364E-05   6.90172760686222E-16
      7.03866666666667E-03
      5.00000000000000E+00   5.00000000000000E+00   0.00000000000000E+00   0.00000000000000E+00   0.00000000000000E+00
      0.00000000000000E+00   0.00000000000000E+00   3.26972300046705E-14   0.00000000000000E+00   0.00000000000000E+00
      0.00000000000000E+00   0.00000000000000E+00  -2.14500266685413E-05  -1.25123583685331E-24  -2.14500266685413E-05
      6.87580866867326E-16   0.00000000000000E+00   0.00000000000000E+00   0.00000000000000E+00   0.00000000000000E+00
      9.14482084078117E-17  -6.75630963584971E-18   8.46918987719619E-17  -3.40766087219932E-14   2.11160000000000E-02
      2.11160000000000E-02   0.00000000000000E+00   0.00000000000000E+00   2.14500266684564E-05   7.82434707306686E-21
      2.14500266684564E-05   6.91797850455613E-16
      1.06102222222222E-02
      5.00000000000000E+00   5.00000000000000E+00   0.00000000000000E+00   0.00000000000000E+00   0.00000000000000E+00
      0.00000000000000E+00   0.00000000000000E+00   3.26612557823297E-14   0.00000000000000E+00   0.00000000000000E+00
      0.00000000000000E+00   0.00000000000000E+00  -3.22111128716644E-05  -1.87903268523405E-24  -3.22111128716644E-05
      6.87549453217934E-16   0.00000000000000E+00   0.00000000000000E+00   0.00000000000000E+00   0.00000000000000E+00
      1.19102046554946E-16  -9.66542640432974E-18   1.09436620150617E-16  -3.40427688248909E-14   3.18306666666667E-02
      3.18306666666667E-02   0.00000000000000E+00   0.00000000000000E+00   3.22111128715545E-05   9.90394997164455E-21
      3.22111128715545E-05   6.93963589343348E-16
      1.50151407407407E-02
      5.00000000000000E+00   5.00000000000000E+00   0.00000000000000E+00   0.00000000000000E+00   0.00000000000000E+00
      0.00000000000000E+00   0.00000000000000E+00   3.26169242768532E-14   0.00000000000000E+00   0.00000000000000E+00
      0.00000000000000E+00   0.00000000000000E+00  -4.53644131107215E-05  -2.64646068911018E-24  -4.53644131107215E-05
      6.87510815121667E-16   0.00000000000000E+00   0.00000000000000E+00   0.00000000000000E+00   0.00000000000000E+00
      2.38789459297567E-15  -1.28837007647824E-17   2.37501089221089E-15  -3.40010681240309E-14   4.50454222222222E-02
      4.50454222222222E-02   0.00000000000000E+00   0.00000000000000E+00   4.53644131083461E-05   1.15034707926010E-20
      4.53644131083461E-05   6.96633032056116E-16
      2.07415348148148E-02
      5.00000000000000E+00   5.00000000000000E+00   0.00000000000000E+00   0.00000000000000E+00   0.00000000000000E+00
      0.00000000000000E+00   0.00000000000000E+00   3.25593547342933E-14   0.00000000000000E+00   0.00000000000000E+00
      0.00000000000000E+00   0.00000000000000E+00  -6.22648416829699E-05  -3.63262986771589E-24  -6.22648416829699E-05
      6.87460762077388E-16   0.00000000000000E+00   0.00000000000000E+00   0.00000000000000E+00   0.00000000000000E+00
     -1.54679703170151E-17  -1.65882099850272E-17  -3.20561803020423E-17  -3.39469161309882E-14   6.22246044444444E-02
      6.22246044444444E-02   0.00000000000000E+00   0.00000000000000E+00   6.22648416830015E-05   1.26364771338745E-20
      6.22648416830015E-05   7.00100634617700E-16
      2.85676067160494E-02
      5.00000000000000E+00   5.00000000000000E+00   0.00000000000000E+00   0.00000000000000E+00   0.00000000000000E+00
      0.00000000000000E+00   0.00000000000000E+00   3.24807906342667E-14   0.00000000000000E+00   0.00000000000000E+00
      0.00000000000000E+00   0.00000000000000E+00  -8.49954897633736E-05  -4.95920847995183E-24  -8.49954897633736E-05
      6.87392684631463E-16   0.00000000000000E+00   0.00000000000000E+00   0.00000000000000E+00   0.00000000000000E+00
      3.75469051826806E-15  -2.10199362021254E-17   3.73367058206594E-15  -3.38730181838751E-14   8.57028201481481E-02
      8.57028201481481E-02   0.00000000000000E+00   0.00000000000000E+00   8.49954897596394E-05   1.32962260233035E-20
      8.49954897596394E-05   7.04834864977034E-16
      3.92632383144033E-02
      5.00000000000000E+00   5.00000000000000E+00   0.00000000000000E+00   0.00000000000000E+00   0.00000000000000E+00
      0.00000000000000E+00   0.00000000000000E+00   3.23736383534640E-14   0.00000000000000E+00   0.00000000000000E+00
      0.00000000000000E+00   0.00000000000000E+00  -1.15375048758897E-04  -6.73255319548496E-24  -1.15375048758897E-04
      6.87300273114615E-16   0.00000000000000E+00   0.00000000000000E+00   0.00000000000000E+00   0.00000000000000E+00
      3.31175189800863E-14  -2.63435937120224E-17   3.30911753863743E-14  -3.37722347277944E-14   1.17789714943210E-01
      1.17789714943210E-01   0.00000000000000E+00   0.00000000000000E+00   1.15375048725805E-04   1.37496235865934E-20
      1.15375048725805E-04   7.11296101215776E-16
      5.35240804455418E-02
      5.00000000000000E+00   5.00000000000000E+00   0.00000000000000E+00   0.00000000000000E+00   0.00000000000000E+00
      0.00000000000000E+00   0.00000000000000E+00   3.22311746571233E-14   0.00000000000000E+00   0.00000000000000E+00
      0.00000000000000E+00   0.00000000000000E+00  -1.54658938494498E-04  -9.02631052334353E-24  -1.54658938494498E-04
      6.87178218336330E-16   0.00000000000000E+00   0.00000000000000E+00   0.00000000000000E+00   0.00000000000000E+00
     -2.48873704520241E-16  -3.28143749098271E-17  -2.81688079430068E-16  -3.36382482935223E-14   1.60572241336626E-01
      1.60572241336626E-01   0.00000000000000E+00   0.00000000000000E+00   1.54658938494777E-04   1.35242684774868E-20
      1.54658938494777E-04   7.19895418062977E-16
      7.30138980247645E-02
      5.00000000000000E+00   5.00000000000000E+00   0.00000000000000E+00   0.00000000000000E+00   0.00000000000000E+00
      0.00000000000000E+00   0.00000000000000E+00   3.20372593768027E-14   0.00000000000000E+00   0.00000000000000E+00
      0.00000000000000E+00   0.00000000000000E+00  -2.06133464782681E-04  -1.20329423690685E-23  -2.06133464782681E-04
      6.87013639345905E-16   0.00000000000000E+00   0.00000000000000E+00   0.00000000000000E+00   0.00000000000000E+00
      8.97823733369105E-17  -4.12390802488901E-17   4.85432930880204E-17  -3.34558924732135E-14   2.19041694074294E-01
      2.19041694074294E-01   0.00000000000000E+00   0.00000000000000E+00   2.06133464782629E-04   1.33582245642884E-20
      2.06133464782629E-04   7.31619457065261E-16
      9.80138980247645E-02
      5.00000000000000E+00   5.00000000000000E+00   0.00000000000000E+00   0.00000000000000E+00   0.00000000000000E+00
      0.00000000000000E+00   0.00000000000000E+00   3.17899288929421E-14   0.00000000000000E+00   0.00000000000000E+00
      0.00000000000000E+00   0.00000000000000E+00  -2.68550610653650E-04  -1.56803484812693E-23  -2.68550610653650E-04
      6.86806477175308E-16   0.00000000000000E+00   0.00000000000000E+00   0.00000000000000E+00   0.00000000000000E+00
      1.69539847713919E-13  -5.12324349914049E-17   1.69488615278927E-13  -3.32233464819846E-14   2.94041694074294E-01
      2.94041694074294E-01   0.00000000000000E+00   0.00000000000000E+00   2.68550610484157E-04   1.36139237630070E-20
      2.68550610484157E-04   7.46611111867352E-16
      1.23013898024765E-01
      5.00000000000000E+00   5.00000000000000E+00   0.00000000000000E+00   0.00000000000000E+00   0.00000000000000E+00
      0.00000000000000E+00   0.00000000000000E+00   3.15442953593462E-14   0.00000000000000E+00   0.00000000000000E+00
      0.00000000000000E+00   0.00000000000000E+00  -3.27107277956730E-04  -1.91037440130216E-23  -3.27107277956730E-04
      6.86603969123288E-16   0.00000000000000E+00   0.00000000000000E+00   0.00000000000000E+00   0.00000000000000E+00
      4.77915790689116E-13  -6.04722781560924E-17   4.77855318410960E-13  -3.29924500081112E-14   3.69041694074294E-01
      3.69041694074294E-01   0.00000000000000E+00   0.00000000000000E+00   3.27107277478869E-04   1.37105465232253E-20
      3.27107277478869E-04   7.61550679641958E-16
      1.48013898024765E-01
      5.00000000000000E+00   5.00000000000000E+00   0.00000000000000E+00   0.00000000000000E+00   0.00000000000000E+00
      0.00000000000000E+00   0.00000000000000E+00   3.13004871396899E-14   0.00000000000000E+00   0.00000000000000E+00
      0.00000000000000E+00   0.00000000000000E+00  -3.82023264314172E-04  -2.23156242072890E-23  -3.82023264314172E-04
      6.86406333845371E-16   0.00000000000000E+00   0.00000000000000E+00   0.00000000000000E+00   0.00000000000000E+00
      9.20762899807377E-14  -6.94986739249554E-17   9.20067913068127E-14  -3.27633319903657E-14   4.44041694074294E-01
      4.44041694074294E-01   0.00000000000000E+00   0.00000000000000E+00   3.82023264222158E-04   1.38171202923139E-20
      3.82023264222158E-04   7.76438516830728E-16
      1.73013898024764E-01
      5.00000000000000E+00   5.00000000000000E+00   0.00000000000000E+00   0.00000000000000E+00   0.00000000000000E+00
      0.00000000000000E+00   0.00000000000000E+00   3.10586374546092E-14   0.00000000000000E+00   0.00000000000000E+00
      0.00000000000000E+00   0.00000000000000E+00  -4.33515450347364E-04  -2.53284181728271E-23  -4.33515450347364E-04
      6.86213764730851E-16   0.00000000000000E+00   0.00000000000000E+00   0.00000000000000E+00   0.00000000000000E+00
      2.13383598234673E-13  -7.79145087748189E-17   2.13305683725898E-13  -3.25361258460024E-14   5.19041694074293E-01
      5.19041694074293E-01   0.00000000000000E+00   0.00000000000000E+00   4.33515450134049E-04   1.38807784650750E-20
      4.33515450134049E-04   7.91274626662572E-16
      1.98013898024764E-01
      5.00000000000000E+00   5.00000000000000E+00   0.00000000000000E+00   0.00000000000000E+00   0.00000000000000E+00
      0.00000000000000E+00   0.00000000000000E+00   3.08188845638252E-14   0.00000000000000E+00   0.00000000000000E+00
      0.00000000000000E+00   0.00000000000000E+00  -4.81792441814610E-04  -2.81540839549129E-23  -4.81792441814610E-04
      6.86026433316650E-16   0.00000000000000E+00   0.00000000000000E+00   0.00000000000000E+00   0.00000000000000E+00
      4.40079808178602E-13  -8.57605219600865E-17   4.39994047656641E-13  -3.23109697695310E-14   5.94041694074293E-01
      5.94041694074293E-01   0.00000000000000E+00   0.00000000000000E+00   4.81792441374606E-04   1.39376633340114E-20
      4.81792441374606E-04   8.06058772389402E-16
      2.23013898024764E-01
      5.00000000000000E+00   5.00000000000000E+00   0.00000000000000E+00   0.00000000000000E+00   0.00000000000000E+00
      0.00000000000000E+00   0.00000000000000E+00   3.05813717358305E-14   0.00000000000000E+00   0.00000000000000E+00
      0.00000000000000E+00   0.00000000000000E+00  -5.27051990780760E-04  -3.08039806363687E-23  -5.27051990780760E-04
      6.85844489172820E-16   0.00000000000000E+00   0.00000000000000E+00   0.00000000000000E+00   0.00000000000000E+00
      8.21952641862467E-13  -9.34825001927778E-17   8.21859159362274E-13  -3.20880068051795E-14   6.69041694074293E-01
      6.69041694074293E-01   0.00000000000000E+00   0.00000000000000E+00   5.27051989958917E-04   1.39921598711832E-20
      5.27051989958917E-04   8.20790580176499E-16
      2.48013898024764E-01
      5.00000000000000E+00   5.00000000000000E+00   0.00000000000000E+00   0.00000000000000E+00   0.00000000000000E+00
      0.00000000000000E+00   0.00000000000000E+00   3.03462473377522E-14   0.00000000000000E+00   0.00000000000000E+00
      0.00000000000000E+00   0.00000000000000E+00  -5.69479906830705E-04  -3.32888118721599E-23  -5.69479906830705E-04
      6.85668060841456E-16   0.00000000000000E+00   0.00000000000000E+00   0.00000000000000E+00   0.00000000000000E+00
      1.41437568499612E-12  -1.00836678047595E-16   1.41427484831807E-12  -3.18673850278588E-14   7.44041694074293E-01
      7.44041694074293E-01   0.00000000000000E+00   0.00000000000000E+00   5.69479905416447E-04   1.40439876644418E-20
      5.69479905416447E-04   8.35469629265528E-16
      2.73013898024765E-01
      5.00000000000000E+00   5.00000000000000E+00   0.00000000000000E+00   0.00000000000000E+00   0.00000000000000E+00
      0.00000000000000E+00   0.00000000000000E+00   3.01136650194284E-14   0.00000000000000E+00   0.00000000000000E+00
      0.00000000000000E+00   0.00000000000000E+00  -6.09249789789840E-04  -3.56185977407912E-23  -6.09249789789840E-04
      6.85497257184138E-16   0.00000000000000E+00   0.00000000000000E+00   0.00000000000000E+00   0.00000000000000E+00
      2.27469136451218E-12  -1.07718998546911E-16   2.27458364551364E-12  -3.16492578076627E-14   8.19041694074294E-01
      8.19041694074294E-01   0.00000000000000E+00   0.00000000000000E+00   6.09249787515275E-04   1.40940338054966E-20
      6.09249787515275E-04   8.50095531050544E-16
      2.98013898024765E-01
      5.00000000000000E+00   5.00000000000000E+00   0.00000000000000E+00   0.00000000000000E+00   0.00000000000000E+00
      0.00000000000000E+00   0.00000000000000E+00   2.98837839678103E-14   0.00000000000000E+00   0.00000000000000E+00
      0.00000000000000E+00   0.00000000000000E+00  -6.46523226131740E-04  -3.78026796459420E-23  -6.46523226131740E-04
      6.85332168690821E-16   0.00000000000000E+00   0.00000000000000E+00   0.00000000000000E+00   0.00000000000000E+00
      9.47598203858989E-17  -1.14479732185064E-16  -1.97199117991648E-17  -3.14337841404633E-14   8.94041694074294E-01
      8.94041694074294E-01   0.00000000000000E+00   0.00000000000000E+00   6.46523226131782E-04   1.41369759159799E-20
      6.46523226131782E-04   8.64668003962418E-16
      3.23013898024765E-01
      5.00000000000000E+00   5.00000000000000E+00   0.00000000000000E+00   0.00000000000000E+00   0.00000000000000E+00
      0.00000000000000E+00   0.00000000000000E+00   2.96567692262756E-14   0.00000000000000E+00   0.00000000000000E+00
      0.00000000000000E+00   0.00000000000000E+00  -6.81450239373057E-04  -3.98497437575530E-23  -6.81450239373057E-04
      6.85172868788382E-16   0.00000000000000E+00   0.00000000000000E+00   0.00000000000000E+00   0.00000000000000E+00
      4.97305599445412E-12  -1.21116379382246E-16   4.97293487807474E-12  -3.12211290364591E-14   9.69041694074294E-01
      9.69041694074294E-01   0.00000000000000E+00   0.00000000000000E+00   6.81450234400148E-04   1.41842056580521E-20
      6.81450234400148E-04   8.79186941395416E-16
      3.48013898024765E-01
      5.00000000000000E+00   5.00000000000000E+00   0.00000000000000E+00   0.00000000000000E+00   0.00000000000000E+00
      0.00000000000000E+00   0.00000000000000E+00   2.94327920828427E-14   0.00000000000000E+00   0.00000000000000E+00
      0.00000000000000E+00   0.00000000000000E+00  -7.14169900163152E-04  -4.17678456713017E-23  -7.14169900163152E-04
      6.85019415156281E-16   0.00000000000000E+00   0.00000000000000E+00   0.00000000000000E+00   0.00000000000000E+00
      6.85159390642903E-12  -1.27369929358190E-16   6.85146653649967E-12  -3.10114639693966E-14   1.04404169407429E+00
      1.04404169407429E+00   0.00000000000000E+00   0.00000000000000E+00   7.14169893311714E-04   1.42249322482430E-20
      7.14169893311714E-04   8.93652471398080E-16
      3.73013898024765E-01
      5.00000000000000E+00   5.00000000000000E+00   0.00000000000000E+00   0.00000000000000E+00   0.00000000000000E+00
      0.00000000000000E+00   0.00000000000000E+00   2.92120304977456E-14   0.00000000000000E+00   0.00000000000000E+00
      0.00000000000000E+00   0.00000000000000E+00  -7.44810982959707E-04  -4.35644547597076E-23  -7.44810982959707E-04
      6.84871850897468E-16   0.00000000000000E+00   0.00000000000000E+00   0.00000000000000E+00   0.00000000000000E+00
      1.00855140837328E-16  -1.33376346646260E-16  -3.25212058089319E-17  -3.08049673615200E-14   1.11904169407429E+00
      1.11904169407429E+00   0.00000000000000E+00   0.00000000000000E+00   7.44810982959770E-04   1.42587742937409E-20
      7.44810982959770E-04   9.08065012877645E-16
      3.98013898024765E-01
      5.00000000000000E+00   5.00000000000000E+00   0.00000000000000E+00   0.00000000000000E+00   0.00000000000000E+00
      0.00000000000000E+00   0.00000000000000E+00   2.89946695789550E-14   0.00000000000000E+00   0.00000000000000E+00
      0.00000000000000E+00   0.00000000000000E+00  -7.73492654019246E-04  -4.52464894098678E-23  -7.73492654019246E-04
      6.84730205737367E-16   0.00000000000000E+00   0.00000000000000E+00   0.00000000000000E+00   0.00000000000000E+00
      2.91127080628491E-16  -1.39366182237779E-16   1.51760898390712E-16  -3.06018251153143E-14   1.19404169407429E+00
      1.19404169407429E+00   0.00000000000000E+00   0.00000000000000E+00   7.73492654019127E-04   1.42946884834681E-20
      7.73492654019127E-04   9.22425330622580E-16
      4.23013898024765E-01
      5.00000000000000E+00   5.00000000000000E+00   0.00000000000000E+00   0.00000000000000E+00   0.00000000000000E+00
      0.00000000000000E+00   0.00000000000000E+00   2.87809020955951E-14   0.00000000000000E+00   0.00000000000000E+00
      0.00000000000000E+00   0.00000000000000E+00  -8.00325172589741E-04  -4.68203554433141E-23  -8.00325172589741E-04
      6.84594497045088E-16   0.00000000000000E+00   0.00000000000000E+00   0.00000000000000E+00   0.00000000000000E+00
      5.14331713109788E-16  -1.45204515921755E-16   3.69127197188033E-16  -3.04022311803771E-14   1.26904169407429E+00
      1.26904169407429E+00   0.00000000000000E+00   0.00000000000000E+00   8.00325172589406E-04   1.43284744831786E-20
      8.00325172589406E-04   9.36734587737240E-16
      4.48013898024765E-01
      5.00000000000000E+00   5.00000000000000E+00   0.00000000000000E+00   0.00000000000000E+00   0.00000000000000E+00
      0.00000000000000E+00   0.00000000000000E+00   2.85709290068656E-14   0.00000000000000E+00   0.00000000000000E+00
      0.00000000000000E+00   0.00000000000000E+00  -8.25410552912169E-04  -4.82919838115064E-23  -8.25410552912169E-04
      6.84464730824776E-16   0.00000000000000E+00   0.00000000000000E+00   0.00000000000000E+00   0.00000000000000E+00
     -1.11389133612449E-16  -1.50737203843879E-16  -2.62126337456327E-16  -3.02063881348501E-14   1.34404169407429E+00
      1.34404169407429E+00   0.00000000000000E+00   0.00000000000000E+00   8.25410552912467E-04   1.43602563081657E-20
      8.25410552912467E-04   9.50994397160284E-16
      4.73013898024765E-01
      5.00000000000000E+00   5.00000000000000E+00   0.00000000000000E+00   0.00000000000000E+00   0.00000000000000E+00
      0.00000000000000E+00   0.00000000000000E+00   2.83649600035374E-14   0.00000000000000E+00   0.00000000000000E+00
      0.00000000000000E+00   0.00000000000000E+00  -8.48843209712675E-04  -4.96668669922758E-23  -8.48843209712675E-04
      6.84340902563545E-16   0.00000000000000E+00   0.00000000000000E+00   0.00000000000000E+00   0.00000000000000E+00
      4.17753536842845E-16  -1.56107278251582E-16   2.61646258591263E-16  -3.00145077829740E-14   1.41904169407429E+00
      1.41904169407429E+00   0.00000000000000E+00   0.00000000000000E+00   8.48843209712450E-04   1.43901507313171E-20
      8.48843209712450E-04   9.65206876873677E-16
      4.98013898024765E-01
      5.00000000000000E+00   5.00000000000000E+00   0.00000000000000E+00   0.00000000000000E+00   0.00000000000000E+00
      0.00000000000000E+00   0.00000000000000E+00   2.81632141505528E-14   0.00000000000000E+00   0.00000000000000E+00
      0.00000000000000E+00   0.00000000000000E+00  -8.70710558937087E-04  -5.09500931193450E-23  -8.70710558937087E-04
      6.84222998031917E-16   0.00000000000000E+00   0.00000000000000E+00   0.00000000000000E+00   0.00000000000000E+00
      3.14485697719329E-16  -1.61471682445346E-16   1.53014015273983E-16  -2.98268118627555E-14   1.49404169407429E+00
      1.49404169407429E+00   0.00000000000000E+00   0.00000000000000E+00   8.70710558936972E-04   1.44182147200644E-20
      8.70710558936972E-04   9.79374714171455E-16
      5.23013898024765E-01
      5.00000000000000E+00   5.00000000000000E+00   0.00000000000000E+00   0.00000000000000E+00   0.00000000000000E+00
      0.00000000000000E+00   0.00000000000000E+00   2.79659201621733E-14   0.00000000000000E+00   0.00000000000000E+00
      0.00000000000000E+00   0.00000000000000E+00  -8.91093623663345E-04  -5.21463805994289E-23  -8.91093623663345E-04
      6.84110993760464E-16   0.00000000000000E+00   0.00000000000000E+00   0.00000000000000E+00   0.00000000000000E+00
      3.93453045781416E-16  -1.66712899221326E-16   2.26740146560090E-16  -2.96435323798494E-14   1.56904169407429E+00
      1.56904169407429E+00   0.00000000000000E+00   0.00000000000000E+00   8.91093623663157E-04   1.44445775541182E-20
      8.91093623663157E-04   9.93501223916113E-16
      5.48013898024765E-01
      5.00000000000000E+00   5.00000000000000E+00   0.00000000000000E+00   0.00000000000000E+00   0.00000000000000E+00
      0.00000000000000E+00   0.00000000000000E+00   2.77733169414190E-14   0.00000000000000E+00   0.00000000000000E+00
      0.00000000000000E+00   0.00000000000000E+00  -9.10067571436012E-04  -5.32601088841629E-23  -9.10067571436012E-04
      6.84004857581703E-16   0.00000000000000E+00   0.00000000000000E+00   0.00000000000000E+00   0.00000000000000E+00
      4.38470180446670E-16  -1.71694686058448E-16   2.66775494388222E-16  -2.94649122256000E-14   1.64404169407429E+00
      1.64404169407429E+00   0.00000000000000E+00   0.00000000000000E+00   9.10067571435785E-04   1.44693171755398E-20
      9.10067571435785E-04   1.00759042659990E-15
      5.73013898024765E-01
      5.00000000000000E+00   5.00000000000000E+00   0.00000000000000E+00   0.00000000000000E+00   0.00000000000000E+00
      0.00000000000000E+00   0.00000000000000E+00   2.75856540770654E-14   0.00000000000000E+00   0.00000000000000E+00
      0.00000000000000E+00   0.00000000000000E+00  -9.27702221778571E-04  -5.42953476101533E-23  -9.27702221778571E-04
      6.83904549048525E-16   0.00000000000000E+00   0.00000000000000E+00   0.00000000000000E+00   0.00000000000000E+00
      1.34098314802219E-16  -1.76499588914800E-16  -4.24012741125811E-17  -2.92912057687862E-14   1.71904169407429E+00
      1.71904169407429E+00   0.00000000000000E+00   0.00000000000000E+00   9.27702221778654E-04   1.44925356555068E-20
      9.27702221778654E-04   1.02164714267274E-15
      5.98013898024765E-01
      5.00000000000000E+00   5.00000000000000E+00   0.00000000000000E+00   0.00000000000000E+00   0.00000000000000E+00
      0.00000000000000E+00   0.00000000000000E+00   2.74031920009785E-14   0.00000000000000E+00   0.00000000000000E+00
      0.00000000000000E+00   0.00000000000000E+00  -9.44062550524686E-04  -5.52558856631106E-23  -9.44062550524686E-04
      6.83810019585594E-16   0.00000000000000E+00   0.00000000000000E+00   0.00000000000000E+00   0.00000000000000E+00
      1.31072496563546E-17  -1.81274426541208E-16  -1.68167176884854E-16  -2.91226791178962E-14   1.79404169407429E+00
      1.79404169407429E+00   0.00000000000000E+00   0.00000000000000E+00   9.44062550524896E-04   1.45142372312875E-20
      9.44062550524896E-04   1.03567709733275E-15
      6.23013898024765E-01
      5.00000000000000E+00   5.00000000000000E+00   0.00000000000000E+00   0.00000000000000E+00   0.00000000000000E+00
      0.00000000000000E+00   0.00000000000000E+00   2.72262020303448E-14   0.00000000000000E+00   0.00000000000000E+00
      0.00000000000000E+00   0.00000000000000E+00  -9.59209165792268E-04  -5.61452586771759E-23  -9.59209165792268E-04
      6.83721212523451E-16   0.00000000000000E+00   0.00000000000000E+00   0.00000000000000E+00   0.00000000000000E+00
      1.93991305364894E-16  -1.85975877069441E-16   8.01542829545278E-18  -2.89596102925707E-14   1.86904169407429E+00
      1.86904169407429E+00   0.00000000000000E+00   0.00000000000000E+00   9.59209165792302E-04   1.45345125333415E-20
      9.59209165792302E-04   1.04968704970318E-15
      6.48013898024765E-01
      5.00000000000000E+00   5.00000000000000E+00   0.00000000000000E+00   0.00000000000000E+00   0.00000000000000E+00
      0.00000000000000E+00   0.00000000000000E+00   2.70549661304348E-14   0.00000000000000E+00   0.00000000000000E+00
      0.00000000000000E+00   0.00000000000000E+00  -9.73198770549414E-04  -5.69667758063720E-23  -9.73198770549414E-04
      6.83638062947752E-16   0.00000000000000E+00   0.00000000000000E+00   0.00000000000000E+00   0.00000000000000E+00
     -1.42865371175322E-16  -1.90460005377037E-16  -3.33325376552359E-16  -2.88022891427716E-14   1.94404169407429E+00
      1.94404169407429E+00   0.00000000000000E+00   0.00000000000000E+00   9.73198770549790E-04   1.45534734602254E-20
      9.73198770549790E-04   1.06368494938980E-15
      6.73013898024765E-01
      5.00000000000000E+00   5.00000000000000E+00   0.00000000000000E+00   0.00000000000000E+00   0.00000000000000E+00
      0.00000000000000E+00   0.00000000000000E+00   2.68897762860267E-14   0.00000000000000E+00   0.00000000000000E+00
      0.00000000000000E+00   0.00000000000000E+00  -9.86084618896614E-04  -5.77235461969639E-23  -9.86084618896614E-04
      6.83560497337291E-16   0.00000000000000E+00   0.00000000000000E+00   0.00000000000000E+00   0.00000000000000E+00
      1.79353683319696E-16  -1.94715242035225E-16  -1.53615587155288E-17  -2.86510169119011E-14   2.01904169407429E+00
      2.01904169407429E+00   0.00000000000000E+00   0.00000000000000E+00   9.86084618896673E-04   1.45711010351632E-20
      9.86084618896673E-04   1.07768012853779E-15
      6.98013898024765E-01
      5.00000000000000E+00   5.00000000000000E+00   0.00000000000000E+00   0.00000000000000E+00   0.00000000000000E+00
      0.00000000000000E+00   0.00000000000000E+00   2.67309333297845E-14   0.00000000000000E+00   0.00000000000000E+00
      0.00000000000000E+00   0.00000000000000E+00  -9.97916974552660E-04  -5.84185056466905E-23  -9.97916974552660E-04
      6.83488432955685E-16   0.00000000000000E+00   0.00000000000000E+00   0.00000000000000E+00   0.00000000000000E+00
     -2.93652024977771E-17  -1.98859920032497E-16  -2.28225122530274E-16  -2.85061053012294E-14   2.09404169407429E+00
      2.09404169407429E+00   0.00000000000000E+00   0.00000000000000E+00   9.97916974552932E-04   1.45875002081851E-20
      9.97916974552932E-04   1.09168353848987E-15
      7.23013898024765E-01
      5.00000000000000E+00   5.00000000000000E+00   0.00000000000000E+00   0.00000000000000E+00   0.00000000000000E+00