DF-ISE text

Info {
  version   = 1.0
  type      = xyplot
  datasets  = [
    "time"
    "gate OuterVoltage" "gate InnerVoltage" "gate QuasiFermiPotential" "gate DisplacementCurrent" "gate eCurrent"
    "gate hCurrent" "gate TotalCurrent" "gate Charge" "source OuterVoltage" "source InnerVoltage"
    "source QuasiFermiPotential" "source DisplacementCurrent" "source eCurrent" "source hCurrent" "source TotalCurrent"
    "source Charge" "substrate OuterVoltage" "substrate InnerVoltage" "substrate QuasiFermiPotential" "substrate DisplacementCurrent"
    "substrate eCurrent" "substrate hCurrent" "substrate TotalCurrent" "substrate Charge" "drain OuterVoltage"
    "drain InnerVoltage" "drain QuasiFermiPotential" "drain DisplacementCurrent" "drain eCurrent" "drain hCurrent"
    "drain TotalCurrent" "drain Charge" ]
  functions = [
    Time
    OuterVoltage InnerVoltage QuasiFermiPotential DisplacementCurrent eCurrent
    hCurrent TotalCurrent Charge OuterVoltage InnerVoltage
    QuasiFermiPotential DisplacementCurrent eCurrent hCurrent TotalCurrent
    Charge OuterVoltage InnerVoltage QuasiFermiPotential DisplacementCurrent
    eCurrent hCurrent TotalCurrent Charge OuterVoltage
    InnerVoltage QuasiFermiPotential DisplacementCurrent eCurrent hCurrent
    TotalCurrent Charge ]
}

Data {
      0.00000000000000E+00
      0.00000000000000E+00   0.00000000000000E+00   0.00000000000000E+00   0.00000000000000E+00   0.00000000000000E+00
      0.00000000000000E+00   0.00000000000000E+00   1.28221964661507E-15   0.00000000000000E+00   0.00000000000000E+00
      0.00000000000000E+00   0.00000000000000E+00  -8.57756830014260E-18  -6.71675187260895E-33  -8.57756830014260E-18
      7.52177116322413E-16   0.00000000000000E+00   0.00000000000000E+00   0.00000000000000E+00   0.00000000000000E+00
      5.09458356039697E-18   1.49796269799158E-31   5.09458356039712E-18  -2.78645715704131E-15   0.00000000000000E+00
      0.00000000000000E+00   0.00000000000000E+00   0.00000000000000E+00   3.48298473974559E-18  -1.21780093449267E-32
      3.48298473974558E-18   7.52060394103835E-16
      0.00000000000000E+00
      0.00000000000000E+00   0.00000000000000E+00   0.00000000000000E+00   0.00000000000000E+00   0.00000000000000E+00
      0.00000000000000E+00   0.00000000000000E+00   1.28221962724585E-15   0.00000000000000E+00   0.00000000000000E+00
      0.00000000000000E+00   0.00000000000000E+00  -2.36006664222175E-17   2.11655294565046E-33  -2.36006664222175E-17
      7.52177111200242E-16   0.00000000000000E+00   0.00000000000000E+00   0.00000000000000E+00   0.00000000000000E+00
     -1.75010399145699E-17  -3.84626761961524E-30  -1.75010399145737E-17  -2.78645712742531E-15   0.00000000000000E+00
      0.00000000000000E+00   0.00000000000000E+00   0.00000000000000E+00   4.11017063367912E-17   2.22955276617219E-33
      4.11017063367912E-17   7.52060388979221E-16
      0.00000000000000E+00
      0.00000000000000E+00   0.00000000000000E+00   0.00000000000000E+00   0.00000000000000E+00   0.00000000000000E+00
      0.00000000000000E+00   0.00000000000000E+00   1.28221962724584E-15   0.00000000000000E+00   0.00000000000000E+00
      0.00000000000000E+00   0.00000000000000E+00   1.09585328762034E-17  -1.70791059582774E-34   1.09585328762034E-17
      7.52177111200240E-16   0.00000000000000E+00   0.00000000000000E+00   0.00000000000000E+00   0.00000000000000E+00
     -8.65883995422882E-19   1.26413390102272E-31  -8.65883995422755E-19  -2.78645712742529E-15   0.00000000000000E+00
      0.00000000000000E+00   0.00000000000000E+00   0.00000000000000E+00  -1.00926488807806E-17  -4.67742400299714E-34
     -1.00926488807806E-17   7.52060388979218E-16
      1.00000000000000E-03
      5.00000000000000E-03   5.00000000000000E-03   0.00000000000000E+00   0.00000000000000E+00   0.00000000000000E+00
      0.00000000000000E+00   0.00000000000000E+00   1.28826123848745E-15   0.00000000000000E+00   0.00000000000000E+00
      0.00000000000000E+00   0.00000000000000E+00  -1.69347614218959E-16  -2.32708481717638E-32  -1.69347614218959E-16
      7.51818315633778E-16   0.00000000000000E+00   0.00000000000000E+00   0.00000000000000E+00   0.00000000000000E+00
      1.79432643276330E-16  -2.35658883092857E-28   1.79432643276094E-16  -2.79178114635562E-15   0.00000000000000E+00
      0.00000000000000E+00   0.00000000000000E+00   0.00000000000000E+00  -1.00850290571374E-17  -2.59913812934259E-32
     -1.00850290571374E-17   7.51701592234383E-16
      2.43333333333333E-03
      1.21666666666667E-02   1.21666666666667E-02   0.00000000000000E+00   0.00000000000000E+00   0.00000000000000E+00
      0.00000000000000E+00   0.00000000000000E+00   1.29691731994516E-15   0.00000000000000E+00   0.00000000000000E+00
      0.00000000000000E+00   0.00000000000000E+00  -3.53620913390543E-17   1.56261109532629E-34  -3.53620913390543E-17
      7.51309836513064E-16   0.00000000000000E+00   0.00000000000000E+00   0.00000000000000E+00   0.00000000000000E+00
      5.81161206487599E-17   1.37876989753891E-31   5.81161206487600E-17  -2.79942026788055E-15   0.00000000000000E+00
      0.00000000000000E+00   0.00000000000000E+00   0.00000000000000E+00  -2.27540293097055E-17   1.85207156926084E-34
     -2.27540293097055E-17   7.51193111422330E-16
      4.44000000000000E-03
      2.22000000000000E-02   2.22000000000000E-02   0.00000000000000E+00   0.00000000000000E+00   0.00000000000000E+00
      0.00000000000000E+00   0.00000000000000E+00   1.30903357797466E-15   0.00000000000000E+00   0.00000000000000E+00
      0.00000000000000E+00   0.00000000000000E+00  -1.30468677466944E-17  -3.41695229144282E-34  -1.30468677466944E-17
      7.50609681389763E-16   0.00000000000000E+00   0.00000000000000E+00   0.00000000000000E+00   0.00000000000000E+00
     -1.99395854464281E-16   1.32913291117819E-31  -1.99395854464281E-16  -2.81013621329176E-15   0.00000000000000E+00
      0.00000000000000E+00   0.00000000000000E+00   0.00000000000000E+00   2.12442722210975E-16   9.39954164216586E-34
      2.12442722210975E-16   7.50492953927349E-16
      7.24933333333333E-03
      3.62466666666667E-02   3.62466666666667E-02   0.00000000000000E+00   0.00000000000000E+00   0.00000000000000E+00
      0.00000000000000E+00   0.00000000000000E+00   1.32600733975386E-15   0.00000000000000E+00   0.00000000000000E+00
      0.00000000000000E+00   0.00000000000000E+00  -5.94083793435202E-18  -6.02452208707429E-34  -5.94083793435202E-18
      7.49653105320903E-16   0.00000000000000E+00   0.00000000000000E+00   0.00000000000000E+00   0.00000000000000E+00
     -5.53058370142759E-17  -2.22254602821213E-31  -5.53058370142761E-17  -2.82519681960802E-15   0.00000000000000E+00
      0.00000000000000E+00   0.00000000000000E+00   0.00000000000000E+00   6.12466749486281E-17  -4.74337312099190E-34
      6.12466749486281E-17   7.49536374533259E-16
      1.11824000000000E-02
      5.59120000000000E-02   5.59120000000000E-02   0.00000000000000E+00   0.00000000000000E+00   0.00000000000000E+00
      0.00000000000000E+00   0.00000000000000E+00   1.34984562164602E-15   0.00000000000000E+00   0.00000000000000E+00
      0.00000000000000E+00   0.00000000000000E+00  -1.55562353962184E-16  -8.57939965461088E-34  -1.55562353962184E-16
      7.48362067406991E-16   0.00000000000000E+00   0.00000000000000E+00   0.00000000000000E+00   0.00000000000000E+00
      1.16032372083866E-16  -7.69132410031748E-29   1.16032372083789E-16  -2.84645302101613E-15   0.00000000000000E+00
      0.00000000000000E+00   0.00000000000000E+00   0.00000000000000E+00   3.95299818783937E-17  -3.97156694398953E-34
      3.95299818783937E-17   7.48245331963144E-16
      1.66886933333333E-02
      8.34434666666667E-02   8.34434666666667E-02   0.00000000000000E+00   0.00000000000000E+00   0.00000000000000E+00
      0.00000000000000E+00   0.00000000000000E+00   1.38357645389902E-15   0.00000000000000E+00   0.00000000000000E+00
      0.00000000000000E+00   0.00000000000000E+00  -3.53704504948625E-17  -7.95902894993233E-34  -3.53704504948625E-17
      7.46653854957500E-16   0.00000000000000E+00   0.00000000000000E+00   0.00000000000000E+00   0.00000000000000E+00
      6.07463723906479E-17  -2.75844967442864E-32   6.07463723906479E-17  -2.87676742188149E-15   0.00000000000000E+00
      0.00000000000000E+00   0.00000000000000E+00   0.00000000000000E+00  -2.53759218957854E-17  -1.04513201916220E-33
     -2.53759218957854E-17   7.46537113025011E-16
      2.42139608888889E-02
      1.21069804444444E-01   1.21069804444444E-01   0.00000000000000E+00   0.00000000000000E+00   0.00000000000000E+00
      0.00000000000000E+00   0.00000000000000E+00   1.43130621711296E-15   0.00000000000000E+00   0.00000000000000E+00
      0.00000000000000E+00   0.00000000000000E+00   7.77157537869638E-17  -9.97601394404866E-34   7.77157537869638E-17
      7.44518014942291E-16   0.00000000000000E+00   0.00000000000000E+00   0.00000000000000E+00   0.00000000000000E+00
     -1.00391619567180E-16  -2.95811096016811E-29  -1.00391619567210E-16  -2.92022549637719E-15   0.00000000000000E+00
      0.00000000000000E+00   0.00000000000000E+00   0.00000000000000E+00   2.26758657802451E-17  -2.82864789680160E-34
      2.26758657802451E-17   7.44401264321958E-16
      3.47493354666667E-02
      1.73746677333333E-01   1.73746677333333E-01   0.00000000000000E+00   0.00000000000000E+00   0.00000000000000E+00
      0.00000000000000E+00   0.00000000000000E+00   1.50726380422476E-15   0.00000000000000E+00   0.00000000000000E+00
      0.00000000000000E+00   0.00000000000000E+00  -3.46489314884934E-17  -9.80794284945169E-34  -3.46489314884934E-17
      7.41936829881343E-16   0.00000000000000E+00   0.00000000000000E+00   0.00000000000000E+00   0.00000000000000E+00
      4.57000963565344E-18   1.33011951130377E-31   4.57000963565357E-18  -2.99102070209090E-15   0.00000000000000E+00
      0.00000000000000E+00   0.00000000000000E+00   0.00000000000000E+00   3.00789218528400E-17   5.61789147183107E-34
      3.00789218528400E-17   7.41820067984809E-16
      4.91476807229630E-02
      2.45738403614815E-01   2.45738403614815E-01   0.00000000000000E+00   0.00000000000000E+00   0.00000000000000E+00
      0.00000000000000E+00   0.00000000000000E+00   1.66874522442701E-15   0.00000000000000E+00   0.00000000000000E+00
      0.00000000000000E+00   0.00000000000000E+00  -6.41753762465928E-17  -7.75458020743292E-34  -6.41753762465928E-17
      7.39177834028757E-16   0.00000000000000E+00   0.00000000000000E+00   0.00000000000000E+00   0.00000000000000E+00
      1.65203675077084E-16   1.17144318298065E-31   1.65203675077085E-16  -3.14698411869619E-15   0.00000000000000E+00
      0.00000000000000E+00   0.00000000000000E+00   0.00000000000000E+00  -1.01028298830492E-16  -3.30491438557982E-34
     -1.01028298830492E-16   7.39061060240419E-16
      6.88254192399012E-02
      3.44127096199506E-01   3.44127096199506E-01   0.00000000000000E+00   0.00000000000000E+00   0.00000000000000E+00
      0.00000000000000E+00   0.00000000000000E+00   2.07680104879052E-15   0.00000000000000E+00   0.00000000000000E+00
      0.00000000000000E+00   0.00000000000000E+00  -4.97587780265449E-17  -3.34080613183354E-34  -4.97587780265449E-17
      7.36457880867453E-16   0.00000000000000E+00   0.00000000000000E+00   0.00000000000000E+00   0.00000000000000E+00
      1.25634253143446E-16   1.24903830659901E-30   1.25634253143447E-16  -3.54960002780973E-15   0.00000000000000E+00
      0.00000000000000E+00   0.00000000000000E+00   0.00000000000000E+00  -7.58754751169014E-17   1.87242241155772E-34
     -7.58754751169014E-17   7.36341098151773E-16
      9.38254192399012E-02
      4.69127096199506E-01   4.69127096199506E-01   0.00000000000000E+00   0.00000000000000E+00   0.00000000000000E+00
      0.00000000000000E+00   0.00000000000000E+00   2.76402561988078E-15   0.00000000000000E+00   0.00000000000000E+00
      0.00000000000000E+00   0.00000000000000E+00   6.87670433115049E-18   1.00440329474493E-33   6.87670433115049E-18
      7.33828159352188E-16   0.00000000000000E+00   0.00000000000000E+00   0.00000000000000E+00   0.00000000000000E+00
      1.21548920321675E-17   1.35400214835971E-31   1.21548920321676E-17  -4.23156515033326E-15   0.00000000000000E+00
      0.00000000000000E+00   0.00000000000000E+00   0.00000000000000E+00  -1.90315963633181E-17  -5.34618243010293E-34
     -1.90315963633181E-17   7.33711371100338E-16
      1.18825419239901E-01
      5.94127096199506E-01   5.94127096199506E-01   0.00000000000000E+00   0.00000000000000E+00   0.00000000000000E+00
      0.00000000000000E+00   0.00000000000000E+00   3.51610243642522E-15   0.00000000000000E+00   0.00000000000000E+00
      0.00000000000000E+00   0.00000000000000E+00   9.84174278392170E-17  -1.09010795769717E-33   9.84174278392170E-17
      7.31625705400815E-16   0.00000000000000E+00   0.00000000000000E+00   0.00000000000000E+00   0.00000000000000E+00
     -1.08028749442394E-16   2.32916032952803E-29  -1.08028749442371E-16  -4.97923705581169E-15   0.00000000000000E+00
      0.00000000000000E+00   0.00000000000000E+00   0.00000000000000E+00   9.61132160315248E-18  -1.04316655064429E-34
      9.61132160315248E-18   7.31508913985667E-16
      1.43825419239901E-01
      7.19127096199506E-01   7.19127096199506E-01   0.00000000000000E+00   0.00000000000000E+00   0.00000000000000E+00
      0.00000000000000E+00   0.00000000000000E+00   4.29566245680188E-15   0.00000000000000E+00   0.00000000000000E+00
      0.00000000000000E+00   0.00000000000000E+00  -1.37379317742477E-17  -2.35997153052798E-34  -1.37379317742477E-17
      7.29665299732274E-16   0.00000000000000E+00   0.00000000000000E+00   0.00000000000000E+00   0.00000000000000E+00
     -3.20668311739454E-17   1.31796153502635E-31  -3.20668311739452E-17  -5.75487626272814E-15   0.00000000000000E+00
      0.00000000000000E+00   0.00000000000000E+00   0.00000000000000E+00   4.58047629481930E-17  -4.35078332499175E-34
      4.58047629481930E-17   7.29548506194023E-16
      1.68825419239901E-01
      8.44127096199506E-01   8.44127096199506E-01   0.00000000000000E+00   0.00000000000000E+00   0.00000000000000E+00
      0.00000000000000E+00   0.00000000000000E+00   5.09022820915719E-15   0.00000000000000E+00   0.00000000000000E+00
      0.00000000000000E+00   0.00000000000000E+00   6.39327796073087E-12  -5.38105025462447E-33   6.39327796073087E-12
      7.27866147940322E-16   0.00000000000000E+00   0.00000000000000E+00   0.00000000000000E+00   0.00000000000000E+00
     -6.40139913748155E-12  -3.14888712367541E-26  -6.40139913748158E-12  -6.54584370993638E-15   0.00000000000000E+00
      0.00000000000000E+00   0.00000000000000E+00   0.00000000000000E+00   8.12117675067205E-15   3.54360296877977E-33
      8.12117675067205E-15   7.27749352838927E-16
      1.93825419239901E-01
      9.69127096199506E-01   9.69127096199506E-01   0.00000000000000E+00   0.00000000000000E+00   0.00000000000000E+00
      0.00000000000000E+00   0.00000000000000E+00   5.89426904634137E-15   0.00000000000000E+00   0.00000000000000E+00
      0.00000000000000E+00   0.00000000000000E+00   1.05862332524207E-12   3.09695852289788E-35   1.05862332524207E-12
      7.26184316289030E-16   0.00000000000000E+00   0.00000000000000E+00   0.00000000000000E+00   0.00000000000000E+00
     -1.05919936137091E-12  -2.93561256625324E-27  -1.05919936137091E-12  -7.34652088260441E-15   0.00000000000000E+00
      0.00000000000000E+00   0.00000000000000E+00   0.00000000000000E+00   5.76036128842497E-16   6.93100491200360E-34
      5.76036128842497E-16   7.26067519974035E-16
      2.18825419239901E-01
      1.09412709619951E+00   1.09412709619951E+00   0.00000000000000E+00   0.00000000000000E+00   0.00000000000000E+00
      0.00000000000000E+00   0.00000000000000E+00   6.70485911785682E-15   0.00000000000000E+00   0.00000000000000E+00
      0.00000000000000E+00   0.00000000000000E+00   1.65634358664977E-13  -6.50456068766418E-35   1.65634358664977E-13
      7.24592534378380E-16   0.00000000000000E+00   0.00000000000000E+00   0.00000000000000E+00   0.00000000000000E+00
     -1.65723157595202E-13  -2.52804297660637E-28  -1.65723157595203E-13  -8.15392738931345E-15   0.00000000000000E+00
      0.00000000000000E+00   0.00000000000000E+00   0.00000000000000E+00   8.87989302248728E-17   1.14435205109111E-34
      8.87989302248728E-17   7.24475737078267E-16
      2.43825419239901E-01
      1.21912709619951E+00   1.21912709619951E+00   0.00000000000000E+00   0.00000000000000E+00   0.00000000000000E+00
      0.00000000000000E+00   0.00000000000000E+00   7.52025834355563E-15   0.00000000000000E+00   0.00000000000000E+00
      0.00000000000000E+00   0.00000000000000E+00   2.34666774687126E-15  -1.46688794158275E-34   2.34666774687126E-15
      7.23072368464751E-16   0.00000000000000E+00   0.00000000000000E+00   0.00000000000000E+00   0.00000000000000E+00
     -2.42464966978206E-15  -3.28430610062991E-29  -2.42464966978210E-15  -8.96628628236177E-15   0.00000000000000E+00
      0.00000000000000E+00   0.00000000000000E+00   0.00000000000000E+00   7.79819229107889E-17  -4.76210725500710E-34
      7.79819229107889E-17   7.22955570341415E-16
      2.68825419239901E-01
      1.34412709619951E+00   1.34412709619951E+00   0.00000000000000E+00   0.00000000000000E+00   0.00000000000000E+00
      0.00000000000000E+00   0.00000000000000E+00   8.33934345377086E-15   0.00000000000000E+00   0.00000000000000E+00
      0.00000000000000E+00   0.00000000000000E+00   4.86519229965242E-16  -1.90396675559212E-34   4.86519229965242E-16
      7.21610615673755E-16   0.00000000000000E+00   0.00000000000000E+00   0.00000000000000E+00   0.00000000000000E+00
     -3.78427121815990E-16   7.88092624509778E-31  -3.78427121815989E-16  -9.78244788629133E-15   0.00000000000000E+00
      0.00000000000000E+00   0.00000000000000E+00   0.00000000000000E+00  -1.08092108149253E-16  -7.60779966591361E-34
     -1.08092108149253E-16   7.21493816846748E-16
      2.93825419239901E-01
      1.46912709619951E+00   1.46912709619951E+00   0.00000000000000E+00   0.00000000000000E+00   0.00000000000000E+00
      0.00000000000000E+00   0.00000000000000E+00   9.16134476573666E-15   0.00000000000000E+00   0.00000000000000E+00
      0.00000000000000E+00   0.00000000000000E+00   9.30393508855537E-17  -4.91971300682368E-35   9.30393508855537E-17
      7.20197424648159E-16   0.00000000000000E+00   0.00000000000000E+00   0.00000000000000E+00   0.00000000000000E+00
     -2.61695599038117E-16   1.15359075998485E-31  -2.61695599038117E-16  -1.06016228155935E-14   0.00000000000000E+00
      0.00000000000000E+00   0.00000000000000E+00   0.00000000000000E+00   1.68656248152563E-16   7.55941575465212E-34
      1.68656248152563E-16   7.20080625208754E-16
      3.18825419239901E-01
      1.59412709619951E+00   1.59412709619951E+00   0.00000000000000E+00   0.00000000000000E+00   0.00000000000000E+00
      0.00000000000000E+00   0.00000000000000E+00   9.98571073125554E-15   0.00000000000000E+00   0.00000000000000E+00
      0.00000000000000E+00   0.00000000000000E+00  -9.74704411833214E-11   6.15034029447334E-30  -9.74704411833214E-11
      7.18825220420311E-16   0.00000000000000E+00   0.00000000000000E+00   0.00000000000000E+00   0.00000000000000E+00
      1.35934460511632E-10   8.43156391964827E-26   1.35934460511632E-10  -1.14232443721838E-14   0.00000000000000E+00
      0.00000000000000E+00   0.00000000000000E+00   0.00000000000000E+00  -3.84640193283110E-11   2.94701118508085E-30
     -3.84640193283110E-11   7.18708420508042E-16
      3.43825419239901E-01
      1.71912709619951E+00   1.71912709619951E+00   0.00000000000000E+00   0.00000000000000E+00   0.00000000000000E+00
      0.00000000000000E+00   0.00000000000000E+00   1.08120322739876E-14   0.00000000000000E+00   0.00000000000000E+00
      0.00000000000000E+00   0.00000000000000E+00  -4.48126581898230E-11   3.05150204792842E-30  -4.48126581898230E-11
      7.17488043824428E-16   0.00000000000000E+00   0.00000000000000E+00   0.00000000000000E+00   0.00000000000000E+00
      6.42834977033398E-11   2.71642465854088E-26   6.42834977033399E-11  -1.22468915612052E-14   0.00000000000000E+00
      0.00000000000000E+00   0.00000000000000E+00   0.00000000000000E+00  -1.94708395135169E-11   1.45145621034951E-30
     -1.94708395135169E-11   7.17371243393238E-16
      3.68825419239901E-01
      1.84412709619951E+00   1.84412709619951E+00   0.00000000000000E+00   0.00000000000000E+00   0.00000000000000E+00
      0.00000000000000E+00   0.00000000000000E+00   1.16399975477486E-14   0.00000000000000E+00   0.00000000000000E+00
      0.00000000000000E+00   0.00000000000000E+00  -2.10734033117454E-11   1.57081483064071E-30  -2.10734033117454E-11
      7.16181120543944E-16   0.00000000000000E+00   0.00000000000000E+00   0.00000000000000E+00   0.00000000000000E+00
      3.09467395738362E-11   8.38797337256949E-27   3.09467395738362E-11  -1.30722429879519E-14   0.00000000000000E+00
      0.00000000000000E+00   0.00000000000000E+00   0.00000000000000E+00  -9.87333626209075E-12   7.25482388485311E-31
     -9.87333626209075E-12   7.16064319659569E-16
      3.93825419239901E-01
      1.96912709619951E+00   1.96912709619951E+00   0.00000000000000E+00   0.00000000000000E+00   0.00000000000000E+00
      0.00000000000000E+00   0.00000000000000E+00   1.24693635414568E-14   0.00000000000000E+00   0.00000000000000E+00
      0.00000000000000E+00   0.00000000000000E+00  -1.01494061989855E-11   8.35662514127961E-31  -1.01494061989855E-11
      7.14900568913932E-16   0.00000000000000E+00   0.00000000000000E+00   0.00000000000000E+00   0.00000000000000E+00
      1.54534187183439E-11   2.20889124958566E-27   1.54534187183439E-11  -1.38990478779940E-14   0.00000000000000E+00
      0.00000000000000E+00   0.00000000000000E+00   0.00000000000000E+00  -5.30401251935841E-12   3.85640381515526E-31
     -5.30401251935841E-12   7.14783767623451E-16
      4.18825419239901E-01
      2.09412709619951E+00   2.09412709619951E+00   0.00000000000000E+00   0.00000000000000E+00   0.00000000000000E+00
      0.00000000000000E+00   0.00000000000000E+00   1.32999373641209E-14   0.00000000000000E+00   0.00000000000000E+00
      0.00000000000000E+00   0.00000000000000E+00  -5.00858180437222E-12   4.59059540971916E-31  -5.00858180437222E-12
      7.13643193265317E-16   0.00000000000000E+00   0.00000000000000E+00   0.00000000000000E+00   0.00000000000000E+00
      7.94128192049121E-12   2.79212279518738E-28   7.94128192049121E-12  -1.47271069489917E-14   0.00000000000000E+00
      0.00000000000000E+00   0.00000000000000E+00   0.00000000000000E+00  -2.93270011611899E-12   2.12479297227385E-31
     -2.93270011611899E-12   7.13526391605654E-16
      4.43825419239901E-01
      2.21912709619951E+00   2.21912709619951E+00   0.00000000000000E+00   0.00000000000000E+00   0.00000000000000E+00
      0.00000000000000E+00   0.00000000000000E+00   1.41315635067144E-14   0.00000000000000E+00   0.00000000000000E+00
      0.00000000000000E+00   0.00000000000000E+00  -2.53382813711325E-12   2.58208961187521E-31  -2.53382813711325E-12
      7.12406334180512E-16   0.00000000000000E+00   0.00000000000000E+00   0.00000000000000E+00   0.00000000000000E+00
      4.20107497076613E-12  -1.42371430844407E-28   4.20107497076613E-12  -1.55562593730763E-14   0.00000000000000E+00
      0.00000000000000E+00   0.00000000000000E+00   0.00000000000000E+00  -1.66724683365289E-12   1.20384566397614E-31
     -1.66724683365289E-12   7.12289532181538E-16
      4.68825419239901E-01
      2.34412709619951E+00   2.34412709619951E+00   0.00000000000000E+00   0.00000000000000E+00   0.00000000000000E+00
      0.00000000000000E+00   0.00000000000000E+00   1.49641149042008E-14   0.00000000000000E+00   0.00000000000000E+00
      0.00000000000000E+00   0.00000000000000E+00  -1.31359048913781E-12   1.50279345664128E-31  -1.31359048913781E-12
      7.11187757386081E-16   0.00000000000000E+00   0.00000000000000E+00   0.00000000000000E+00   0.00000000000000E+00
      1.84707873227458E-12  -5.13179832616593E-29   1.84707873227458E-12  -1.63863736166597E-14   0.00000000000000E+00
      0.00000000000000E+00   0.00000000000000E+00   0.00000000000000E+00  -5.33488243136765E-13   6.98693257273271E-32
     -5.33488243136765E-13   7.11070955073060E-16
      4.93825419239901E-01
      2.46912709619951E+00   2.46912709619951E+00   0.00000000000000E+00   0.00000000000000E+00   0.00000000000000E+00
      0.00000000000000E+00   0.00000000000000E+00   1.57974865071074E-14   0.00000000000000E+00   0.00000000000000E+00
      0.00000000000000E+00   0.00000000000000E+00  -6.98066212767029E-13   8.85798924444999E-32  -6.98066212767029E-13
      7.09985569766706E-16   0.00000000000000E+00   0.00000000000000E+00   0.00000000000000E+00   0.00000000000000E+00
      1.00820043611321E-12  -8.81318247210763E-29   1.00820043611321E-12  -1.72173408440345E-14   0.00000000000000E+00
      0.00000000000000E+00   0.00000000000000E+00   0.00000000000000E+00  -3.10134223346180E-13   4.23461153734036E-32
     -3.10134223346180E-13   7.09868767160492E-16
      5.18825419239901E-01
      2.59412709619951E+00   2.59412709619951E+00   0.00000000000000E+00   0.00000000000000E+00   0.00000000000000E+00
      0.00000000000000E+00   0.00000000000000E+00   1.66315905601843E-14   0.00000000000000E+00   0.00000000000000E+00
      0.00000000000000E+00   0.00000000000000E+00  -3.79910308556325E-13   5.35811701232096E-32  -3.79910308556325E-13
      7.08798154886991E-16   0.00000000000000E+00   0.00000000000000E+00   0.00000000000000E+00   0.00000000000000E+00
      5.64470620019092E-13  -7.68432752860086E-29   5.64470620019092E-13  -1.80490700670773E-14   0.00000000000000E+00
      0.00000000000000E+00   0.00000000000000E+00   0.00000000000000E+00  -1.84560311462766E-13   2.61912704594039E-32
     -1.84560311462766E-13   7.08681352006155E-16
      5.43825419239901E-01
      2.71912709619951E+00   2.71912709619951E+00   0.00000000000000E+00   0.00000000000000E+00   0.00000000000000E+00
      0.00000000000000E+00   0.00000000000000E+00   1.74663530718866E-14   0.00000000000000E+00   0.00000000000000E+00
      0.00000000000000E+00   0.00000000000000E+00  -2.11674951022948E-13   3.34032014167277E-32  -2.11674951022948E-13
      7.07624122831713E-16   0.00000000000000E+00   0.00000000000000E+00   0.00000000000000E+00   0.00000000000000E+00
      3.24007568196288E-13  -5.70721541791588E-29   3.24007568196288E-13  -1.88814845144108E-14   0.00000000000000E+00
      0.00000000000000E+00   0.00000000000000E+00   0.00000000000000E+00  -1.12332617173339E-13   1.55978926258228E-32
     -1.12332617173339E-13   7.07507319692547E-16
      5.68825419239901E-01
      2.84412709619951E+00   2.84412709619951E+00   0.00000000000000E+00   0.00000000000000E+00   0.00000000000000E+00
      0.00000000000000E+00   0.00000000000000E+00   1.83017111327937E-14   0.00000000000000E+00   0.00000000000000E+00
      0.00000000000000E+00   0.00000000000000E+00  -1.20671549809443E-13   2.03904630609184E-32  -1.20671549809443E-13
      7.06462270734855E-16   0.00000000000000E+00   0.00000000000000E+00   0.00000000000000E+00   0.00000000000000E+00
      1.39587962949841E-13  -1.89649134326453E-29   1.39587962949841E-13  -1.97145188708802E-14   0.00000000000000E+00
      0.00000000000000E+00   0.00000000000000E+00   0.00000000000000E+00  -1.89164131403983E-14   1.04049350176225E-32
     -1.89164131403983E-14   7.06345467351829E-16
      5.93825419239902E-01
      2.96912709619951E+00   2.96912709619951E+00   0.00000000000000E+00   0.00000000000000E+00   0.00000000000000E+00
      0.00000000000000E+00   0.00000000000000E+00   1.91376108506530E-14   0.00000000000000E+00   0.00000000000000E+00
      0.00000000000000E+00   0.00000000000000E+00  -7.03041354697057E-14   1.28919593111810E-32  -7.03041354697057E-14
      7.05311551403420E-16   0.00000000000000E+00   0.00000000000000E+00   0.00000000000000E+00   0.00000000000000E+00
      8.21406154719164E-14  -1.40051073425286E-29   8.21406154719163E-14  -2.05481171498457E-14   0.00000000000000E+00
      0.00000000000000E+00   0.00000000000000E+00   0.00000000000000E+00  -1.18364800022106E-14   7.92112647569260E-33
     -1.18364800022106E-14   7.05194747789369E-16
      6.18825419239902E-01
      3.09412709619951E+00   3.09412709619951E+00   0.00000000000000E+00   0.00000000000000E+00   0.00000000000000E+00
      0.00000000000000E+00   0.00000000000000E+00   1.99740057407502E-14   0.00000000000000E+00   0.00000000000000E+00
      0.00000000000000E+00   0.00000000000000E+00  -4.16949531426122E-14   8.65632698746487E-33  -4.16949531426122E-14
      7.04171048148318E-16   0.00000000000000E+00   0.00000000000000E+00   0.00000000000000E+00   0.00000000000000E+00
      4.92787604116049E-14  -9.86712863571855E-30   4.92787604116049E-14  -2.13822310332133E-14   0.00000000000000E+00
      0.00000000000000E+00   0.00000000000000E+00   0.00000000000000E+00  -7.58380726899273E-15   3.84034516139721E-33
     -7.58380726899273E-15   7.04054244314827E-16
      6.43825419239902E-01
      3.21912709619951E+00   3.21912709619951E+00   0.00000000000000E+00   0.00000000000000E+00   0.00000000000000E+00
      0.00000000000000E+00   0.00000000000000E+00   2.08108554574104E-14   0.00000000000000E+00   0.00000000000000E+00
      0.00000000000000E+00   0.00000000000000E+00   7.67182894569921E-15   4.13280889860744E-33   7.67182894569921E-15
      7.03039954427121E-16   0.00000000000000E+00   0.00000000000000E+00   0.00000000000000E+00   0.00000000000000E+00
     -2.81546558258641E-15   6.25523515419949E-30  -2.81546558258641E-15  -2.22168185622219E-14   0.00000000000000E+00
      0.00000000000000E+00   0.00000000000000E+00   0.00000000000000E+00  -4.85636336311279E-15   3.28082509386682E-33
     -4.85636336311279E-15   7.02923150384634E-16
      6.68825419239902E-01
      3.34412709619951E+00   3.34412709619951E+00   0.00000000000000E+00   0.00000000000000E+00   0.00000000000000E+00