DF-ISE text

Info {
  version   = 1.0
  type      = xyplot
  datasets  = [
    "time"
    "gate OuterVoltage" "gate InnerVoltage" "gate QuasiFermiPotential" "gate DisplacementCurrent" "gate eCurrent"
    "gate hCurrent" "gate TotalCurrent" "gate Charge" "source OuterVoltage" "source InnerVoltage"
    "source QuasiFermiPotential" "source DisplacementCurrent" "source eCurrent" "source hCurrent" "source TotalCurrent"
    "source Charge" "substrate OuterVoltage" "substrate InnerVoltage" "substrate QuasiFermiPotential" "substrate DisplacementCurrent"
    "substrate eCurrent" "substrate hCurrent" "substrate TotalCurrent" "substrate Charge" "drain OuterVoltage"
    "drain InnerVoltage" "drain QuasiFermiPotential" "drain DisplacementCurrent" "drain eCurrent" "drain hCurrent"
    "drain TotalCurrent" "drain Charge" ]
  functions = [
    Time
    OuterVoltage InnerVoltage QuasiFermiPotential DisplacementCurrent eCurrent
    hCurrent TotalCurrent Charge OuterVoltage InnerVoltage
    QuasiFermiPotential DisplacementCurrent eCurrent hCurrent TotalCurrent
    Charge OuterVoltage InnerVoltage QuasiFermiPotential DisplacementCurrent
    eCurrent hCurrent TotalCurrent Charge OuterVoltage
    InnerVoltage QuasiFermiPotential DisplacementCurrent eCurrent hCurrent
    TotalCurrent Charge ]
}

Data {
      0.00000000000000E+00
      0.00000000000000E+00   0.00000000000000E+00   0.00000000000000E+00   0.00000000000000E+00   0.00000000000000E+00
      0.00000000000000E+00   0.00000000000000E+00   1.28221964661507E-15   0.00000000000000E+00   0.00000000000000E+00
      0.00000000000000E+00   0.00000000000000E+00  -8.57756830014260E-18  -6.71675187260895E-33  -8.57756830014260E-18
      7.52177116322413E-16   0.00000000000000E+00   0.00000000000000E+00   0.00000000000000E+00   0.00000000000000E+00
      5.09458356039697E-18   1.49796269799158E-31   5.09458356039712E-18  -2.78645715704131E-15   0.00000000000000E+00
      0.00000000000000E+00   0.00000000000000E+00   0.00000000000000E+00   3.48298473974559E-18  -1.21780093449267E-32
      3.48298473974558E-18   7.52060394103835E-16
      0.00000000000000E+00
      0.00000000000000E+00   0.00000000000000E+00   0.00000000000000E+00   0.00000000000000E+00   0.00000000000000E+00
      0.00000000000000E+00   0.00000000000000E+00   1.28221962724585E-15   0.00000000000000E+00   0.00000000000000E+00
      0.00000000000000E+00   0.00000000000000E+00  -2.36006664222175E-17   2.11655294565046E-33  -2.36006664222175E-17
      7.52177111200242E-16   0.00000000000000E+00   0.00000000000000E+00   0.00000000000000E+00   0.00000000000000E+00
     -1.75010399145699E-17  -3.84626761961524E-30  -1.75010399145737E-17  -2.78645712742531E-15   0.00000000000000E+00
      0.00000000000000E+00   0.00000000000000E+00   0.00000000000000E+00   4.11017063367912E-17   2.22955276617219E-33
      4.11017063367912E-17   7.52060388979221E-16
      0.00000000000000E+00
      0.00000000000000E+00   0.00000000000000E+00   0.00000000000000E+00   0.00000000000000E+00   0.00000000000000E+00
      0.00000000000000E+00   0.00000000000000E+00   1.28221962724584E-15   0.00000000000000E+00   0.00000000000000E+00
      0.00000000000000E+00   0.00000000000000E+00   1.09585328762034E-17  -1.70791059582774E-34   1.09585328762034E-17
      7.52177111200240E-16   0.00000000000000E+00   0.00000000000000E+00   0.00000000000000E+00   0.00000000000000E+00
     -8.65883995422882E-19   1.26413390102272E-31  -8.65883995422755E-19  -2.78645712742529E-15   0.00000000000000E+00
      0.00000000000000E+00   0.00000000000000E+00   0.00000000000000E+00  -1.00926488807806E-17  -4.67742400299714E-34
     -1.00926488807806E-17   7.52060388979218E-16
      1.00000000000000E-03
      0.00000000000000E+00   0.00000000000000E+00   0.00000000000000E+00   0.00000000000000E+00   0.00000000000000E+00
      0.00000000000000E+00   0.00000000000000E+00   1.28220307204271E-15   0.00000000000000E+00   0.00000000000000E+00
      0.00000000000000E+00   0.00000000000000E+00  -2.73834154269822E-13  -1.62192255775876E-32  -2.73834154269822E-13
      7.52177111182851E-16   0.00000000000000E+00   0.00000000000000E+00   0.00000000000000E+00   0.00000000000000E+00
      1.11483703558373E-14  -3.65385412107985E-20   1.11483338172961E-14  -2.78646813447801E-15   1.00000000000000E-04
      1.00000000000000E-04   0.00000000000000E+00   0.00000000000000E+00   2.62685820398103E-13   5.44097507108421E-23
      2.62685820452513E-13   7.52087951252442E-16
      2.46666666666667E-03
      0.00000000000000E+00   0.00000000000000E+00   0.00000000000000E+00   0.00000000000000E+00   0.00000000000000E+00
      0.00000000000000E+00   0.00000000000000E+00   1.28217879488451E-15   0.00000000000000E+00   0.00000000000000E+00
      0.00000000000000E+00   0.00000000000000E+00  -6.73794200967239E-13  -3.86453585780312E-32  -6.73794200967239E-13
      7.52177111157469E-16   0.00000000000000E+00   0.00000000000000E+00   0.00000000000000E+00   0.00000000000000E+00
      5.63912345290296E-14  -9.00053526304669E-20   5.63911445236770E-14  -2.78648428519436E-15   2.46666666666667E-04
      2.46666666666667E-04   0.00000000000000E+00   0.00000000000000E+00   6.17403056309705E-13   1.33828875877446E-22
      6.17403056443534E-13   7.52128379152394E-16
      4.61777777777778E-03
      0.00000000000000E+00   0.00000000000000E+00   0.00000000000000E+00   0.00000000000000E+00   0.00000000000000E+00
      0.00000000000000E+00   0.00000000000000E+00   1.28214319651341E-15   0.00000000000000E+00   0.00000000000000E+00
      0.00000000000000E+00   0.00000000000000E+00  -1.25631641753160E-12  -7.42696074153491E-32  -1.25631641753160E-12
      7.52177111120503E-16   0.00000000000000E+00   0.00000000000000E+00   0.00000000000000E+00   0.00000000000000E+00
      1.66596295473322E-16  -1.68159518854923E-19   1.66428135954467E-16  -2.78650798804095E-15   4.61777777777778E-04
      4.61777777777778E-04   0.00000000000000E+00   0.00000000000000E+00   1.25614998914609E-12   2.49493312324114E-22
      1.25614998939558E-12   7.52187680407051E-16
      7.70103703703704E-03
      0.00000000000000E+00   0.00000000000000E+00   0.00000000000000E+00   0.00000000000000E+00   0.00000000000000E+00
      0.00000000000000E+00   0.00000000000000E+00   1.28209218904260E-15   0.00000000000000E+00   0.00000000000000E+00
      0.00000000000000E+00   0.00000000000000E+00  -2.08234988264720E-12  -1.22147740086664E-31  -2.08234988264720E-12
      7.52177111068055E-16   0.00000000000000E+00   0.00000000000000E+00   0.00000000000000E+00   0.00000000000000E+00
     -2.34968135749489E-16  -2.79635764673766E-19  -2.35247771514163E-16  -2.78654199340431E-15   7.70103703703704E-04
      7.70103703703704E-04   0.00000000000000E+00   0.00000000000000E+00   2.08258513000500E-12   4.13596808229079E-22
      2.08258513041860E-12   7.52272693293657E-16
      1.21203753086420E-02
      0.00000000000000E+00   0.00000000000000E+00   0.00000000000000E+00   0.00000000000000E+00   0.00000000000000E+00
      0.00000000000000E+00   0.00000000000000E+00   1.28201911275384E-15   0.00000000000000E+00   0.00000000000000E+00
      0.00000000000000E+00   0.00000000000000E+00  -3.24955766835565E-12  -1.91535115928033E-31  -3.24955766835565E-12
      7.52177110993967E-16   0.00000000000000E+00   0.00000000000000E+00   0.00000000000000E+00   0.00000000000000E+00
      9.98026909313774E-17  -4.38306590731190E-19   9.93643843406462E-17  -2.78659079849349E-15   1.21203753086420E-03
      1.21203753086420E-03   0.00000000000000E+00   0.00000000000000E+00   3.24945830332581E-12   6.45396189352601E-22
      3.24945830397121E-12   7.52394574745694E-16
      1.84547601646091E-02
      0.00000000000000E+00   0.00000000000000E+00   0.00000000000000E+00   0.00000000000000E+00   0.00000000000000E+00
      0.00000000000000E+00   0.00000000000000E+00   1.28191444024105E-15   0.00000000000000E+00   0.00000000000000E+00
      0.00000000000000E+00   0.00000000000000E+00  -4.88753522796739E-12  -2.87641041175875E-31  -4.88753522796739E-12
      7.52177110889973E-16   0.00000000000000E+00   0.00000000000000E+00   0.00000000000000E+00   0.00000000000000E+00
      7.73139449342740E-17  -6.63471937141375E-19   7.66504729971326E-17  -2.78666088346230E-15   1.84547601646091E-03
      1.84547601646091E-03   0.00000000000000E+00   0.00000000000000E+00   4.88745857652342E-12   9.70743281572722E-22
      4.88745857749416E-12   7.52569332331292E-16
      2.75340451248285E-02
      0.00000000000000E+00   0.00000000000000E+00   0.00000000000000E+00   0.00000000000000E+00   0.00000000000000E+00
      0.00000000000000E+00   0.00000000000000E+00   1.28176455220971E-15   0.00000000000000E+00   0.00000000000000E+00
      0.00000000000000E+00   0.00000000000000E+00  -7.16579091920972E-12  -4.23215132141631E-31  -7.16579091920972E-12
      7.52177110745323E-16   0.00000000000000E+00   0.00000000000000E+00   0.00000000000000E+00   0.00000000000000E+00
      1.82811361158716E-15  -9.81622084083781E-19   1.82713198950308E-15  -2.78676160593412E-15   2.75340451248285E-03
      2.75340451248285E-03   0.00000000000000E+00   0.00000000000000E+00   7.16396378579678E-12   1.42324818879784E-21
      7.16396378722003E-12   7.52819942979100E-16
      4.05476869011431E-02
      0.00000000000000E+00   0.00000000000000E+00   0.00000000000000E+00   0.00000000000000E+00   0.00000000000000E+00
      0.00000000000000E+00   0.00000000000000E+00   1.28155000100805E-15   0.00000000000000E+00   0.00000000000000E+00
      0.00000000000000E+00   0.00000000000000E+00  -1.02931016148695E-11  -6.06093326341317E-31  -1.02931016148695E-11
      7.52177110546724E-16   0.00000000000000E+00   0.00000000000000E+00   0.00000000000000E+00   0.00000000000000E+00
      4.23133085770904E-14  -1.42839387984672E-18   4.23118801832106E-14  -2.78690651885392E-15   4.05476869011431E-03
      4.05476869011431E-03   0.00000000000000E+00   0.00000000000000E+00   1.02507897326414E-11   2.04443517211993E-21
      1.02507897346858E-11   7.53179407299140E-16
      5.92005734471940E-02
      0.00000000000000E+00   0.00000000000000E+00   0.00000000000000E+00   0.00000000000000E+00   0.00000000000000E+00
      0.00000000000000E+00   0.00000000000000E+00   1.28124305679692E-15   0.00000000000000E+00   0.00000000000000E+00
      0.00000000000000E+00   0.00000000000000E+00  -1.45063297490556E-11  -8.54639030448507E-31  -1.45063297490556E-11
      7.52177110279102E-16   0.00000000000000E+00   0.00000000000000E+00   0.00000000000000E+00   0.00000000000000E+00
      1.49328297961486E-16  -2.05029564902703E-18   1.47278002312459E-16  -2.78711533005468E-15   5.92005734471940E-03
      5.92005734471940E-03   0.00000000000000E+00   0.00000000000000E+00   1.45061824681716E-11   2.88134510459789E-21
      1.45061824710529E-11   7.53695162978652E-16
      8.42005734471940E-02
      0.00000000000000E+00   0.00000000000000E+00   0.00000000000000E+00   0.00000000000000E+00   0.00000000000000E+00
      0.00000000000000E+00   0.00000000000000E+00   1.28083270445190E-15   0.00000000000000E+00   0.00000000000000E+00
      0.00000000000000E+00   0.00000000000000E+00  -1.96902230316441E-11  -1.15870410511006E-30  -1.96902230316441E-11
      7.52177109949706E-16   0.00000000000000E+00   0.00000000000000E+00   0.00000000000000E+00   0.00000000000000E+00
     -1.07902853062572E-16  -2.85098256616072E-18  -1.10753835628732E-16  -2.78739719440148E-15   8.42005734471940E-03
      8.42005734471940E-03   0.00000000000000E+00   0.00000000000000E+00   1.96903337815677E-11   3.91115810962025E-21
      1.96903337854788E-11   7.54387379999884E-16
      1.09200573447194E-01
      0.00000000000000E+00   0.00000000000000E+00   0.00000000000000E+00   0.00000000000000E+00   0.00000000000000E+00
      0.00000000000000E+00   0.00000000000000E+00   1.28042349682397E-15   0.00000000000000E+00   0.00000000000000E+00
      0.00000000000000E+00   0.00000000000000E+00  -2.43891282693675E-11  -1.43620512642888E-30  -2.43891282693675E-11
      7.52177109651042E-16   0.00000000000000E+00   0.00000000000000E+00   0.00000000000000E+00   0.00000000000000E+00
      6.66075686741994E-17  -3.61579265497739E-18   6.29917760192220E-17  -2.78768129937172E-15   1.09200573447194E-02
      1.09200573447194E-02   0.00000000000000E+00   0.00000000000000E+00   2.43890652727462E-11   4.84461223594389E-21
      2.43890652775908E-11   7.55080692896726E-16
      1.34200573447194E-01
      0.00000000000000E+00   0.00000000000000E+00   0.00000000000000E+00   0.00000000000000E+00   0.00000000000000E+00
      0.00000000000000E+00   0.00000000000000E+00   1.28001538866506E-15   0.00000000000000E+00   0.00000000000000E+00
      0.00000000000000E+00   0.00000000000000E+00  -2.86473071818979E-11  -1.68719944957963E-30  -2.86473071818979E-11
      7.52177109380293E-16   0.00000000000000E+00   0.00000000000000E+00   0.00000000000000E+00   0.00000000000000E+00
      3.46751588447198E-17  -4.34653293338612E-18   3.03286259113337E-17  -2.78796759254987E-15   1.34200573447194E-02
      1.34200573447194E-02   0.00000000000000E+00   0.00000000000000E+00   2.86472768475805E-11   5.69058830373623E-21
      2.86472768532711E-11   7.55775094504511E-16
      1.59200573447194E-01
      0.00000000000000E+00   0.00000000000000E+00   0.00000000000000E+00   0.00000000000000E+00   0.00000000000000E+00
      0.00000000000000E+00   0.00000000000000E+00   1.27960833698142E-15   0.00000000000000E+00   0.00000000000000E+00
      0.00000000000000E+00   0.00000000000000E+00  -3.25056483239454E-11  -1.91403351547490E-30  -3.25056483239454E-11
      7.52177109134894E-16   0.00000000000000E+00   0.00000000000000E+00   0.00000000000000E+00   0.00000000000000E+00
      5.34829397624794E-17  -5.04492402324301E-18   4.84380157392364E-17  -2.78825602378791E-15   1.59200573447194E-02
      1.59200573447194E-02   0.00000000000000E+00   0.00000000000000E+00   3.25055998794704E-11   6.45716290783958E-21
      3.25055998859276E-11   7.56470577671604E-16
      1.84200573447194E-01
      0.00000000000000E+00   0.00000000000000E+00   0.00000000000000E+00   0.00000000000000E+00   0.00000000000000E+00
      0.00000000000000E+00   0.00000000000000E+00   1.27920230089481E-15   0.00000000000000E+00   0.00000000000000E+00
      0.00000000000000E+00   0.00000000000000E+00  -3.60008554941307E-11  -2.11894111691701E-30  -3.60008554941307E-11
      7.52177108912514E-16   0.00000000000000E+00   0.00000000000000E+00   0.00000000000000E+00   0.00000000000000E+00
     -2.80746698829023E-16  -5.71260236709903E-18  -2.86459301196122E-16  -2.78854654506933E-15   1.84200573447194E-02
      1.84200573447194E-02   0.00000000000000E+00   0.00000000000000E+00   3.60011419462784E-11   7.15167541708267E-21
      3.60011419534301E-11   7.57167135262010E-16
      2.09200573447194E-01
      0.00000000000000E+00   0.00000000000000E+00   0.00000000000000E+00   0.00000000000000E+00   0.00000000000000E+00
      0.00000000000000E+00   0.00000000000000E+00   1.27879724151374E-15   0.00000000000000E+00   0.00000000000000E+00
      0.00000000000000E+00   0.00000000000000E+00  -3.91670684205496E-11  -2.30548546869870E-30  -3.91670684205496E-11
      7.52177108711034E-16   0.00000000000000E+00   0.00000000000000E+00   0.00000000000000E+00   0.00000000000000E+00
     -5.16596285155083E-17  -6.35112291352894E-18  -5.80107514290373E-17  -2.78883911038271E-15   2.09200573447194E-02
      2.09200573447194E-02   0.00000000000000E+00   0.00000000000000E+00   3.91671264235185E-11   7.78079080947673E-21
      3.91671264312993E-11   7.57864760157959E-16
      2.34200573447194E-01
      0.00000000000000E+00   0.00000000000000E+00   0.00000000000000E+00   0.00000000000000E+00   0.00000000000000E+00
      0.00000000000000E+00   0.00000000000000E+00   1.27839312181370E-15   0.00000000000000E+00   0.00000000000000E+00
      0.00000000000000E+00   0.00000000000000E+00  -4.20342914601637E-11  -2.47542262565950E-30  -4.20342914601637E-11
      7.52177108528527E-16   0.00000000000000E+00   0.00000000000000E+00   0.00000000000000E+00   0.00000000000000E+00
      7.39781089056081E-17  -6.96196222542938E-18   6.70161466801788E-17  -2.78913367560455E-15   2.34200573447194E-02
      2.34200573447194E-02   0.00000000000000E+00   0.00000000000000E+00   4.20342244356648E-11   8.35056042467793E-21
      4.20342244440153E-11   7.58563445262329E-16
      2.59200573447194E-01
      0.00000000000000E+00   0.00000000000000E+00   0.00000000000000E+00   0.00000000000000E+00   0.00000000000000E+00
      0.00000000000000E+00   0.00000000000000E+00   1.27798990652594E-15   0.00000000000000E+00   0.00000000000000E+00
      0.00000000000000E+00   0.00000000000000E+00  -4.46304118699875E-11  -2.62712611585105E-30  -4.46304118699875E-11
      7.52177108363243E-16   0.00000000000000E+00   0.00000000000000E+00   0.00000000000000E+00   0.00000000000000E+00
      2.21857652540601E-17  -7.54652192328025E-18   1.46392433307799E-17  -2.78943019839023E-15   2.59200573447194E-02
      2.59200573447194E-02   0.00000000000000E+00   0.00000000000000E+00   4.46303972218760E-11   8.86647721417785E-21
      4.46303972307425E-11   7.59263183501058E-16
      2.84200573447194E-01
      0.00000000000000E+00   0.00000000000000E+00   0.00000000000000E+00   0.00000000000000E+00   0.00000000000000E+00
      0.00000000000000E+00   0.00000000000000E+00   1.27758756203399E-15   0.00000000000000E+00   0.00000000000000E+00
      0.00000000000000E+00   0.00000000000000E+00  -4.69806410718684E-11  -2.76662210691072E-30  -4.69806410718684E-11
      7.52177108213590E-16   0.00000000000000E+00   0.00000000000000E+00   0.00000000000000E+00   0.00000000000000E+00
      4.72448336870117E-17  -8.10613237309295E-18   3.91387013139188E-17  -2.78972863807305E-15   2.84200573447194E-02
      2.84200573447194E-02   0.00000000000000E+00   0.00000000000000E+00   4.69806019238316E-11   9.33352640792883E-21
      4.69806019331651E-11   7.59963967825494E-16
      3.09200573447194E-01
      0.00000000000000E+00   0.00000000000000E+00   0.00000000000000E+00   0.00000000000000E+00   0.00000000000000E+00
      0.00000000000000E+00   0.00000000000000E+00   1.27718605627742E-15   0.00000000000000E+00   0.00000000000000E+00
      0.00000000000000E+00   0.00000000000000E+00  -4.91075504345999E-11  -2.89191819327073E-30  -4.91075504345999E-11
      7.52177108078123E-16   0.00000000000000E+00   0.00000000000000E+00   0.00000000000000E+00   0.00000000000000E+00
      1.33383652426389E-16  -8.64205652294561E-18   1.24741595903444E-16  -2.79002895557021E-15   3.09200573447194E-02
      3.09200573447194E-02   0.00000000000000E+00   0.00000000000000E+00   4.91074256832460E-11   9.75623183447757E-21
      4.91074256930023E-11   7.60665791214686E-16
      3.34200573447194E-01
      0.00000000000000E+00   0.00000000000000E+00   0.00000000000000E+00   0.00000000000000E+00   0.00000000000000E+00
      0.00000000000000E+00   0.00000000000000E+00   1.27678535866218E-15   0.00000000000000E+00   0.00000000000000E+00
      0.00000000000000E+00   0.00000000000000E+00  -5.10320671006061E-11  -3.00572524999188E-30  -5.10320671006061E-11
      7.52177107955529E-16   0.00000000000000E+00   0.00000000000000E+00   0.00000000000000E+00   0.00000000000000E+00
      6.98507756351134E-17  -9.15549379503126E-18   6.06952818400821E-17  -2.79033111329529E-15   3.34200573447194E-02
      3.34200573447194E-02   0.00000000000000E+00   0.00000000000000E+00   5.10320063951841E-11   1.01386981842565E-20
      5.10320064053228E-11   7.61368646677608E-16
      3.59200573447194E-01
      0.00000000000000E+00   0.00000000000000E+00   0.00000000000000E+00   0.00000000000000E+00   0.00000000000000E+00
      0.00000000000000E+00   0.00000000000000E+00   1.27638543997710E-15   0.00000000000000E+00   0.00000000000000E+00
      0.00000000000000E+00   0.00000000000000E+00  -5.27729473098548E-11  -3.10714369840269E-30  -5.27729473098548E-11
      7.52177107844616E-16   0.00000000000000E+00   0.00000000000000E+00   0.00000000000000E+00   0.00000000000000E+00
      1.65539089741755E-16  -9.64758394803585E-18   1.55891505793719E-16  -2.79063507507702E-15   3.59200573447194E-02
      3.59200573447194E-02   0.00000000000000E+00   0.00000000000000E+00   5.27727914078627E-11   1.04846495201593E-20
      5.27727914183473E-11   7.62072527255312E-16
      3.84200573447194E-01
      0.00000000000000E+00   0.00000000000000E+00   0.00000000000000E+00   0.00000000000000E+00   0.00000000000000E+00
      0.00000000000000E+00   0.00000000000000E+00   1.27598627231607E-15   0.00000000000000E+00   0.00000000000000E+00
      0.00000000000000E+00   0.00000000000000E+00  -5.43473454067619E-11  -3.19985972301161E-30  -5.43473454067619E-11
      7.52177107744298E-16   0.00000000000000E+00   0.00000000000000E+00   0.00000000000000E+00   0.00000000000000E+00
      2.63423254379035E-16  -1.01194108359949E-17   2.53303843543040E-16  -2.79094080608337E-15   3.84200573447194E-02
      3.84200573447194E-02   0.00000000000000E+00   0.00000000000000E+00   5.43470920921192E-11   1.07974643365403E-20
      5.43470921029166E-11   7.62777426023017E-16
      4.09200573447194E-01
      0.00000000000000E+00   0.00000000000000E+00   0.00000000000000E+00   0.00000000000000E+00   0.00000000000000E+00
      0.00000000000000E+00   0.00000000000000E+00   1.27558782900541E-15   0.00000000000000E+00   0.00000000000000E+00
      0.00000000000000E+00   0.00000000000000E+00  -5.57705170960223E-11  -3.28288368142965E-30  -5.57705170960223E-11
      7.52177107653594E-16   0.00000000000000E+00   0.00000000000000E+00   0.00000000000000E+00   0.00000000000000E+00
      1.75742386477555E-17  -1.05720060032378E-17   7.00223264451764E-18  -2.79124827275111E-15   4.09200573447194E-02
      4.09200573447194E-02   0.00000000000000E+00   0.00000000000000E+00   5.57705100827081E-11   1.10802074580144E-20
      5.57705100937883E-11   7.63483336092110E-16
      4.34200573447194E-01
      0.00000000000000E+00   0.00000000000000E+00   0.00000000000000E+00   0.00000000000000E+00   0.00000000000000E+00
      0.00000000000000E+00   0.00000000000000E+00   1.27519008453612E-15   0.00000000000000E+00   0.00000000000000E+00
      0.00000000000000E+00   0.00000000000000E+00  -5.70569706929057E-11  -3.35968458510978E-30  -5.70569706929057E-11
      7.52177107571606E-16   0.00000000000000E+00   0.00000000000000E+00   0.00000000000000E+00   0.00000000000000E+00
      1.53092289264784E-16  -1.10063520695055E-17   1.42085937195278E-16  -2.79155744271979E-15   4.34200573447194E-02
      4.34200573447194E-02   0.00000000000000E+00   0.00000000000000E+00   5.70568285956312E-11   1.13356590682472E-20
      5.70568286069669E-11   7.64190250612078E-16
      4.59200573447194E-01
      0.00000000000000E+00   0.00000000000000E+00   0.00000000000000E+00   0.00000000000000E+00   0.00000000000000E+00
      0.00000000000000E+00   0.00000000000000E+00   1.27479301450160E-15   0.00000000000000E+00   0.00000000000000E+00
      0.00000000000000E+00   0.00000000000000E+00  -5.82190734535482E-11  -3.42726315562278E-30  -5.82190734535482E-11
      7.52177107497525E-16   0.00000000000000E+00   0.00000000000000E+00   0.00000000000000E+00   0.00000000000000E+00
      2.81134936515633E-17  -1.14233858482473E-17   1.66901078033160E-17  -2.79186828477199E-15   4.59200573447194E-02
      4.59200573447194E-02   0.00000000000000E+00   0.00000000000000E+00   5.82190567518723E-11   1.15663310766597E-20
      5.82190567634387E-11   7.64898162772881E-16
      4.84200573447194E-01
      0.00000000000000E+00   0.00000000000000E+00   0.00000000000000E+00   0.00000000000000E+00   0.00000000000000E+00
      0.00000000000000E+00   0.00000000000000E+00   1.27439659553643E-15   0.00000000000000E+00   0.00000000000000E+00
      0.00000000000000E+00   0.00000000000000E+00  -5.92686908914794E-11  -3.48966714481785E-30  -5.92686908914794E-11
      7.52177107430611E-16   0.00000000000000E+00   0.00000000000000E+00   0.00000000000000E+00   0.00000000000000E+00
     -5.42638242265723E-17  -1.18240012846236E-17  -6.60878255111959E-17  -2.79218076877264E-15   4.84200573447194E-02
      4.84200573447194E-02   0.00000000000000E+00   0.00000000000000E+00   5.92687569675286E-11   1.17745124021237E-20
      5.92687569793031E-11   7.65607065805616E-16
      5.09200573447194E-01
      0.00000000000000E+00   0.00000000000000E+00   0.00000000000000E+00   0.00000000000000E+00   0.00000000000000E+00
      0.00000000000000E+00   0.00000000000000E+00   1.27400080526163E-15   0.00000000000000E+00   0.00000000000000E+00
      0.00000000000000E+00   0.00000000000000E+00  -6.02163434849309E-11  -3.54582078928597E-30  -6.02163434849309E-11
      7.52177107370197E-16   0.00000000000000E+00   0.00000000000000E+00   0.00000000000000E+00   0.00000000000000E+00
      1.35881360518829E-16  -1.22090520613012E-17   1.23672308457528E-16  -2.79249486561625E-15   5.09200573447194E-02
      5.09200573447194E-02   0.00000000000000E+00   0.00000000000000E+00   6.02162198006585E-11   1.19622857658928E-20
      6.02162198126208E-11   7.66316952984440E-16
      5.34200573447194E-01
      0.00000000000000E+00   0.00000000000000E+00   0.00000000000000E+00   0.00000000000000E+00   0.00000000000000E+00
      0.00000000000000E+00   0.00000000000000E+00   1.27360562223434E-15   0.00000000000000E+00   0.00000000000000E+00
      0.00000000000000E+00   0.00000000000000E+00  -6.10715392107467E-11  -3.59509997893803E-30  -6.10715392107467E-11
      7.52177107315672E-16   0.00000000000000E+00   0.00000000000000E+00   0.00000000000000E+00   0.00000000000000E+00
      1.76352995025486E-16  -1.25793539200330E-17   1.63773641105453E-16  -2.79281054717892E-15   5.34200573447194E-02
      5.34200573447194E-02   0.00000000000000E+00   0.00000000000000E+00   6.10713754249701E-11   1.21315328076156E-20
      6.10713754371016E-11   7.67027817628924E-16
      5.59200573447194E-01
      0.00000000000000E+00   0.00000000000000E+00   0.00000000000000E+00   0.00000000000000E+00   0.00000000000000E+00
      0.00000000000000E+00   0.00000000000000E+00   1.27321102589865E-15   0.00000000000000E+00   0.00000000000000E+00
      0.00000000000000E+00   0.00000000000000E+00  -6.18430120977441E-11  -3.64139378628641E-30  -6.18430120977441E-11
      7.52177107266482E-16   0.00000000000000E+00   0.00000000000000E+00   0.00000000000000E+00   0.00000000000000E+00
      1.14193565578872E-16  -1.29356867927451E-17   1.01257878786127E-16  -2.79312778627025E-15   5.59200573447194E-02
      5.59200573447194E-02   0.00000000000000E+00   0.00000000000000E+00   6.18429108275777E-11   1.22839602253282E-20
      6.18429108398616E-11   7.67739653105134E-16
      5.84200573447194E-01
      0.00000000000000E+00   0.00000000000000E+00   0.00000000000000E+00   0.00000000000000E+00   0.00000000000000E+00
      0.00000000000000E+00   0.00000000000000E+00   1.27281699654026E-15   0.00000000000000E+00   0.00000000000000E+00
      0.00000000000000E+00   0.00000000000000E+00  -6.25385212683055E-11  -3.68274140052146E-30  -6.25385212683055E-11
      7.52177107222128E-16   0.00000000000000E+00   0.00000000000000E+00   0.00000000000000E+00   0.00000000000000E+00
      1.30499374386573E-16  -1.32787966828882E-17   1.17220577703684E-16  -2.79344655658943E-15   5.84200573447194E-02
      5.84200573447194E-02   0.00000000000000E+00   0.00000000000000E+00   6.25384040353032E-11   1.24211160369061E-20
      6.25384040477243E-11   7.68452452827053E-16
      6.09200573447194E-01
      0.00000000000000E+00   0.00000000000000E+00   0.00000000000000E+00   0.00000000000000E+00   0.00000000000000E+00
      0.00000000000000E+00   0.00000000000000E+00   1.27242351524400E-15   0.00000000000000E+00   0.00000000000000E+00
      0.00000000000000E+00   0.00000000000000E+00  -6.31651244844889E-11  -3.71765160036471E-30  -6.31651244844889E-11
      7.52177107182152E-16   0.00000000000000E+00   0.00000000000000E+00   0.00000000000000E+00   0.00000000000000E+00
     -2.44716389854800E-16  -1.36093973410651E-17  -2.58325787195865E-16  -2.79376683268405E-15   6.09200573447194E-02
      6.09200573447194E-02   0.00000000000000E+00   0.00000000000000E+00   6.31653827977281E-11   1.25444043555231E-20
      6.31653828102725E-11   7.69166210257900E-16
      6.34200573447194E-01
      0.00000000000000E+00   0.00000000000000E+00   0.00000000000000E+00   0.00000000000000E+00   0.00000000000000E+00
      0.00000000000000E+00   0.00000000000000E+00   1.27203056385397E-15   0.00000000000000E+00   0.00000000000000E+00
      0.00000000000000E+00   0.00000000000000E+00  -6.37297983323277E-11  -3.75188102012219E-30  -6.37297983323277E-11
      7.52177107146141E-16   0.00000000000000E+00   0.00000000000000E+00   0.00000000000000E+00   0.00000000000000E+00
     -1.22804943884447E-16  -1.39281717602444E-17  -1.36733115644691E-16  -2.79408858991146E-15   6.34200573447194E-02
      6.34200573447194E-02   0.00000000000000E+00   0.00000000000000E+00   6.37299350527845E-11   1.26550988945856E-20
      6.37299350654396E-11   7.69880918911367E-16
      6.59200573447194E-01
      0.00000000000000E+00   0.00000000000000E+00   0.00000000000000E+00   0.00000000000000E+00   0.00000000000000E+00
      0.00000000000000E+00   0.00000000000000E+00   1.27163812493615E-15   0.00000000000000E+00   0.00000000000000E+00
      0.00000000000000E+00   0.00000000000000E+00  -6.42383478903322E-11  -3.78241179780308E-30  -6.42383478903322E-11
      7.52177107113717E-16   0.00000000000000E+00   0.00000000000000E+00   0.00000000000000E+00   0.00000000000000E+00
     -7.28543307370639E-17  -1.42357735161571E-17  -8.70901042532210E-17  -2.79441180440261E-15   6.59200573447194E-02
      6.59200573447194E-02   0.00000000000000E+00   0.00000000000000E+00   6.42384349676781E-11   1.27543551022014E-20
      6.42384349804325E-11   7.70596572352761E-16
      6.84200573447194E-01
      0.00000000000000E+00   0.00000000000000E+00   0.00000000000000E+00   0.00000000000000E+00   0.00000000000000E+00