DF-ISE text

Info {
  version   = 1.0
  type      = xyplot
  datasets  = [
    "time"
    "gate OuterVoltage" "gate InnerVoltage" "gate QuasiFermiPotential" "gate DisplacementCurrent" "gate eCurrent"
    "gate hCurrent" "gate TotalCurrent" "gate Charge" "source OuterVoltage" "source InnerVoltage"
    "source QuasiFermiPotential" "source DisplacementCurrent" "source eCurrent" "source hCurrent" "source TotalCurrent"
    "source Charge" "substrate OuterVoltage" "substrate InnerVoltage" "substrate QuasiFermiPotential" "substrate DisplacementCurrent"
    "substrate eCurrent" "substrate hCurrent" "substrate TotalCurrent" "substrate Charge" "drain OuterVoltage"
    "drain InnerVoltage" "drain QuasiFermiPotential" "drain DisplacementCurrent" "drain eCurrent" "drain hCurrent"
    "drain TotalCurrent" "drain Charge" ]
  functions = [
    Time
    OuterVoltage InnerVoltage QuasiFermiPotential DisplacementCurrent eCurrent
    hCurrent TotalCurrent Charge OuterVoltage InnerVoltage
    QuasiFermiPotential DisplacementCurrent eCurrent hCurrent TotalCurrent
    Charge OuterVoltage InnerVoltage QuasiFermiPotential DisplacementCurrent
    eCurrent hCurrent TotalCurrent Charge OuterVoltage
    InnerVoltage QuasiFermiPotential DisplacementCurrent eCurrent hCurrent
    TotalCurrent Charge ]
}

Data {
      1.00000000000000E-03
      3.00000000000000E-03   3.00000000000000E-03   0.00000000000000E+00   0.00000000000000E+00   0.00000000000000E+00
      0.00000000000000E+00   0.00000000000000E+00   1.26991936150134E-15   0.00000000000000E+00   0.00000000000000E+00
      0.00000000000000E+00   0.00000000000000E+00  -7.46237086167711E-11  -4.38792977720617E-30  -7.46237086167711E-11
      7.51961433925574E-16   0.00000000000000E+00   0.00000000000000E+00   0.00000000000000E+00   0.00000000000000E+00
     -8.86204737077027E-18  -1.75937295636728E-17  -2.64557769344431E-17  -2.80206510949458E-15   1.00000000000000E-01
      1.00000000000000E-01   0.00000000000000E+00   0.00000000000000E+00   7.46237350591615E-11   1.33827788681947E-20
      7.46237350725443E-11   7.80184314067684E-16
      2.43333333333333E-03
      7.30000000000000E-03   7.30000000000000E-03   0.00000000000000E+00   0.00000000000000E+00   0.00000000000000E+00
      0.00000000000000E+00   0.00000000000000E+00   1.27505778265100E-15   0.00000000000000E+00   0.00000000000000E+00
      0.00000000000000E+00   0.00000000000000E+00  -8.58338503264428E-11  -5.04159994107653E-30  -8.58338503264428E-11
      7.51654374691947E-16   0.00000000000000E+00   0.00000000000000E+00   0.00000000000000E+00   0.00000000000000E+00
     -1.48686907654100E-16  -1.75860066763600E-17  -1.66272914330460E-16  -2.80652671119884E-15   1.00000000000000E-01
      1.00000000000000E-01   0.00000000000000E+00   0.00000000000000E+00   8.58340165859708E-11   1.33825670531807E-20
      8.58340165993534E-11   7.79814553855903E-16
      4.48777777777778E-03
      1.34633333333333E-02   1.34633333333333E-02   0.00000000000000E+00   0.00000000000000E+00   0.00000000000000E+00
      0.00000000000000E+00   0.00000000000000E+00   1.28241574537536E-15   0.00000000000000E+00   0.00000000000000E+00
      0.00000000000000E+00   0.00000000000000E+00  -1.04914175371043E-10  -6.14049660455501E-30  -1.04914175371043E-10
      7.51218569366648E-16   0.00000000000000E+00   0.00000000000000E+00   0.00000000000000E+00   0.00000000000000E+00
     -1.26863518935967E-16  -1.75741106081685E-17  -1.44437629544136E-16  -2.81292203364996E-15   1.00000000000000E-01
      1.00000000000000E-01   0.00000000000000E+00   0.00000000000000E+00   1.04914319795287E-10   1.33822625233625E-20
      1.04914319808669E-10   7.79287718907980E-16
      7.36400000000000E-03
      2.20920000000000E-02   2.20920000000000E-02   0.00000000000000E+00   0.00000000000000E+00   0.00000000000000E+00
      0.00000000000000E+00   0.00000000000000E+00   1.29270482673100E-15   0.00000000000000E+00   0.00000000000000E+00
      0.00000000000000E+00   0.00000000000000E+00  -1.38989390548506E-10  -8.11284436291038E-30  -1.38989390548506E-10
      7.50617135030638E-16   0.00000000000000E+00   0.00000000000000E+00   0.00000000000000E+00   0.00000000000000E+00
      6.52457532116968E-18  -1.75564712605152E-17  -1.10318959393455E-17  -2.82187848017515E-15   1.00000000000000E-01
      1.00000000000000E-01   0.00000000000000E+00   0.00000000000000E+00   1.38989401567011E-10   1.33818344004452E-20
      1.38989401580393E-10   7.78556518413542E-16
      1.13907111111111E-02
      3.41721333333333E-02   3.41721333333333E-02   0.00000000000000E+00   0.00000000000000E+00   0.00000000000000E+00
      0.00000000000000E+00   0.00000000000000E+00   1.30709208905122E-15   0.00000000000000E+00   0.00000000000000E+00
      0.00000000000000E+00   0.00000000000000E+00  -2.06147450659527E-10  -1.19972967564016E-29  -2.06147450659527E-10
      7.49792596626093E-16   0.00000000000000E+00   0.00000000000000E+00   0.00000000000000E+00   0.00000000000000E+00
     -2.63750118730715E-17  -1.75319624617052E-17  -4.39069743347767E-17  -2.83443036068024E-15   1.00000000000000E-01
      1.00000000000000E-01   0.00000000000000E+00   0.00000000000000E+00   2.06147494553111E-10   1.33812329569803E-20
      2.06147494566493E-10   7.77545675002962E-16
      1.70281066666667E-02
      5.10843200000000E-02   5.10843200000000E-02   0.00000000000000E+00   0.00000000000000E+00   0.00000000000000E+00
      0.00000000000000E+00   0.00000000000000E+00   1.32722035107373E-15   0.00000000000000E+00   0.00000000000000E+00
      0.00000000000000E+00   0.00000000000000E+00  -3.58260384555690E-10  -2.07969573060391E-29  -3.58260384555690E-10
      7.48673650375971E-16   0.00000000000000E+00   0.00000000000000E+00   0.00000000000000E+00   0.00000000000000E+00
     -2.93403387727328E-16  -1.75025054124290E-17  -3.10905893139757E-16  -2.85205067324208E-15   1.00000000000000E-01
      1.00000000000000E-01   0.00000000000000E+00   0.00000000000000E+00   3.58260695448175E-10   1.33803910596702E-20
      3.58260695461556E-10   7.76156671792406E-16
      2.49204604444444E-02
      7.47613813333333E-02   7.47613813333333E-02   0.00000000000000E+00   0.00000000000000E+00   0.00000000000000E+00
      0.00000000000000E+00   0.00000000000000E+00   1.35544596022256E-15   0.00000000000000E+00   0.00000000000000E+00
      0.00000000000000E+00   0.00000000000000E+00  -7.77674338198571E-10  -4.50663949824313E-29  -7.77674338198571E-10
      7.47179624624272E-16   0.00000000000000E+00   0.00000000000000E+00   0.00000000000000E+00   0.00000000000000E+00
      2.89209062291023E-16  -1.74707152535903E-17   2.71738347037433E-16  -2.87689190188154E-15   1.00000000000000E-01
      1.00000000000000E-01   0.00000000000000E+00   0.00000000000000E+00   7.77674066446779E-10   1.33791434808117E-20
      7.77674066460158E-10   7.74266317034735E-16
      3.59697557333333E-02
      1.07909267200000E-01   1.07909267200000E-01   0.00000000000000E+00   0.00000000000000E+00   0.00000000000000E+00
      0.00000000000000E+00   0.00000000000000E+00   1.39536254757421E-15   0.00000000000000E+00   0.00000000000000E+00
      0.00000000000000E+00   0.00000000000000E+00  -2.30482558977015E-09  -1.33456086073677E-28  -2.30482558977015E-09
      7.45237979788036E-16   0.00000000000000E+00   0.00000000000000E+00   0.00000000000000E+00   0.00000000000000E+00
      1.20975577771042E-16  -1.74239762628129E-17   1.03551601508229E-16  -2.91233524396408E-15   1.00000000000000E-01
      1.00000000000000E-01   0.00000000000000E+00   0.00000000000000E+00   2.30482548620507E-09   1.33773414974616E-20
      2.30482548621844E-09   7.71734716601855E-16
      5.14387691377778E-02
      1.54316307413333E-01   1.54316307413333E-01   0.00000000000000E+00   0.00000000000000E+00   0.00000000000000E+00
      0.00000000000000E+00   0.00000000000000E+00   1.45372608190007E-15   0.00000000000000E+00   0.00000000000000E+00
      0.00000000000000E+00   0.00000000000000E+00  -1.04934050354250E-08  -6.07731977581928E-28  -1.04934050354250E-08
      7.42831440363170E-16   0.00000000000000E+00   0.00000000000000E+00   0.00000000000000E+00   0.00000000000000E+00
      7.48282816639216E-17  -1.74010965200990E-17   5.74271851438226E-17  -2.96499787577737E-15   1.00000000000000E-01
      1.00000000000000E-01   0.00000000000000E+00   0.00000000000000E+00   1.04934049779842E-08   1.33745305291521E-20
      1.04934049779976E-08   7.68440353514148E-16
      7.25797541238518E-02
      2.17739262371556E-01   2.17739262371556E-01   0.00000000000000E+00   0.00000000000000E+00   0.00000000000000E+00
      0.00000000000000E+00   0.00000000000000E+00   1.54981463547645E-15   0.00000000000000E+00   0.00000000000000E+00
      0.00000000000000E+00   0.00000000000000E+00  -7.67590574346773E-08  -4.44913311428400E-27  -7.67590574346773E-08
      7.40147393838053E-16   0.00000000000000E+00   0.00000000000000E+00   0.00000000000000E+00   0.00000000000000E+00
     -1.18420244387346E-16  -1.76556148928685E-17  -1.36075859280214E-16  -3.05443668368559E-15   1.00000000000000E-01
      1.00000000000000E-01   0.00000000000000E+00   0.00000000000000E+00   7.67590575707388E-08   1.33707666942328E-20
      7.67590575707521E-08   7.64474654371105E-16
      9.75797541238518E-02
      2.92739262371556E-01   2.92739262371556E-01   0.00000000000000E+00   0.00000000000000E+00   0.00000000000000E+00
      0.00000000000000E+00   0.00000000000000E+00   1.73102377448229E-15   0.00000000000000E+00   0.00000000000000E+00
      0.00000000000000E+00   0.00000000000000E+00  -5.14257478169432E-07  -2.98323990709454E-26  -5.14257478169432E-07
      7.37746367964913E-16   0.00000000000000E+00   0.00000000000000E+00   0.00000000000000E+00   0.00000000000000E+00
      1.75841422723388E-17  -1.89961955359394E-17  -1.41205326360062E-18  -3.22946901452205E-15   1.00000000000000E-01
      1.00000000000000E-01   0.00000000000000E+00   0.00000000000000E+00   5.14257478170821E-07   1.33673957724638E-20
      5.14257478170834E-07   7.60698872074875E-16
      1.22579754123852E-01
      3.67739262371556E-01   3.67739262371556E-01   0.00000000000000E+00   0.00000000000000E+00   0.00000000000000E+00
      0.00000000000000E+00   0.00000000000000E+00   2.01168881641404E-15   0.00000000000000E+00   0.00000000000000E+00
      0.00000000000000E+00   0.00000000000000E+00  -1.71505827605452E-06  -9.95520164810026E-26  -1.71505827605452E-06
      7.35858200351378E-16   0.00000000000000E+00   0.00000000000000E+00   0.00000000000000E+00   0.00000000000000E+00
     -9.27456912793429E-17  -2.06916075279694E-17  -1.13437298807312E-16  -3.50547421893492E-15   1.00000000000000E-01
      1.00000000000000E-01   0.00000000000000E+00   0.00000000000000E+00   1.71505827616793E-06   1.33658313382969E-20
      1.71505827616794E-06   7.57927202169533E-16
      1.47579754123852E-01
      4.42739262371555E-01   4.42739262371555E-01   0.00000000000000E+00   0.00000000000000E+00   0.00000000000000E+00
      0.00000000000000E+00   0.00000000000000E+00   2.37490653333782E-15   0.00000000000000E+00   0.00000000000000E+00
      0.00000000000000E+00   0.00000000000000E+00  -3.50914615427615E-06  -2.03786036862087E-25  -3.50914615427615E-06
      7.34253150629829E-16   0.00000000000000E+00   0.00000000000000E+00   0.00000000000000E+00   0.00000000000000E+00
     -6.39635171509879E-17  -2.17167927113763E-17  -8.56803098623641E-17  -3.86502275291229E-15   1.00000000000000E-01
      1.00000000000000E-01   0.00000000000000E+00   0.00000000000000E+00   3.50914615436178E-06   1.33656888593642E-20
      3.50914615436179E-06   7.55863068944641E-16
      1.72579754123852E-01
      5.17739262371555E-01   5.17739262371555E-01   0.00000000000000E+00   0.00000000000000E+00   0.00000000000000E+00
      0.00000000000000E+00   0.00000000000000E+00   2.78746689325829E-15   0.00000000000000E+00   0.00000000000000E+00
      0.00000000000000E+00   0.00000000000000E+00  -5.55896528244362E-06  -3.22948590410720E-25  -5.55896528244362E-06
      7.32825574768846E-16   0.00000000000000E+00   0.00000000000000E+00   0.00000000000000E+00   0.00000000000000E+00
      7.75461682423332E-17  -2.22530726845113E-17   5.52930955578219E-17  -4.27446915903121E-15   1.00000000000000E-01
      1.00000000000000E-01   0.00000000000000E+00   0.00000000000000E+00   5.55896528238827E-06   1.33663087516473E-20
      5.55896528238828E-06   7.54176691004107E-16
      1.97579754123852E-01
      5.92739262371555E-01   5.92739262371555E-01   0.00000000000000E+00   0.00000000000000E+00   0.00000000000000E+00
      0.00000000000000E+00   0.00000000000000E+00   3.22660797375152E-15   0.00000000000000E+00   0.00000000000000E+00
      0.00000000000000E+00   0.00000000000000E+00  -7.70557766647585E-06  -4.47798487570064E-25  -7.70557766647585E-06
      7.31520112524001E-16   0.00000000000000E+00   0.00000000000000E+00   0.00000000000000E+00   0.00000000000000E+00
      2.79434569901134E-16  -2.25585301693729E-17   2.56876039731761E-16  -4.71083191195696E-15   1.00000000000000E-01
      1.00000000000000E-01   0.00000000000000E+00   0.00000000000000E+00   7.70557766621892E-06   1.33673282663034E-20
      7.70557766621893E-06   7.52703825681470E-16
      2.22579754123852E-01
      6.67739262371555E-01   6.67739262371555E-01   0.00000000000000E+00   0.00000000000000E+00   0.00000000000000E+00
      0.00000000000000E+00   0.00000000000000E+00   3.68120826936997E-15   0.00000000000000E+00   0.00000000000000E+00
      0.00000000000000E+00   0.00000000000000E+00  -9.88524332350738E-06  -5.74621803352554E-25  -9.88524332350738E-06
      7.30304542384071E-16   0.00000000000000E+00   0.00000000000000E+00   0.00000000000000E+00   0.00000000000000E+00
     -3.99720402866175E-17  -2.27502569814199E-17  -6.27222972680374E-17  -5.16288185224598E-15   1.00000000000000E-01
      1.00000000000000E-01   0.00000000000000E+00   0.00000000000000E+00   9.88524332356994E-06   1.33685936641025E-20
      9.88524332356995E-06   7.51369040491959E-16
      2.47579754123852E-01
      7.42739262371555E-01   7.42739262371555E-01   0.00000000000000E+00   0.00000000000000E+00   0.00000000000000E+00
      0.00000000000000E+00   0.00000000000000E+00   4.14568851628835E-15   0.00000000000000E+00   0.00000000000000E+00
      0.00000000000000E+00   0.00000000000000E+00  -1.20686695302672E-05  -7.01707227172073E-25  -1.20686695302672E-05
      7.29158555426330E-16   0.00000000000000E+00   0.00000000000000E+00   0.00000000000000E+00   0.00000000000000E+00
      3.96960120249134E-17  -2.28800076273092E-17   1.68160043976042E-17  -5.62497969071040E-15   1.00000000000000E-01
      1.00000000000000E-01   0.00000000000000E+00   0.00000000000000E+00   1.20686695302502E-05   1.33700247714922E-20
      1.20686695302502E-05   7.50132618995729E-16
      2.72579754123852E-01
      8.17739262371555E-01   8.17739262371555E-01   0.00000000000000E+00   0.00000000000000E+00   0.00000000000000E+00
      0.00000000000000E+00   0.00000000000000E+00   4.61697584882192E-15   0.00000000000000E+00   0.00000000000000E+00
      0.00000000000000E+00   0.00000000000000E+00  -1.42404484359107E-05  -8.28152017107992E-25  -1.42404484359107E-05
      7.28068450221914E-16   0.00000000000000E+00   0.00000000000000E+00   0.00000000000000E+00   0.00000000000000E+00
      3.00154476647730E-16  -2.29729350442181E-17   2.77181541603512E-16  -6.09401519273421E-15   1.00000000000000E-01
      1.00000000000000E-01   0.00000000000000E+00   0.00000000000000E+00   1.42404484356334E-05   1.33715669182644E-20
      1.42404484356334E-05   7.48970893690417E-16
      2.97579754123852E-01
      8.92739262371556E-01   8.92739262371556E-01   0.00000000000000E+00   0.00000000000000E+00   0.00000000000000E+00
      0.00000000000000E+00   0.00000000000000E+00   5.09322708257568E-15   0.00000000000000E+00   0.00000000000000E+00
      0.00000000000000E+00   0.00000000000000E+00  -1.63916753558214E-05  -9.53432256116643E-25  -1.63916753558214E-05
      7.27024464983818E-16   0.00000000000000E+00   0.00000000000000E+00   0.00000000000000E+00   0.00000000000000E+00
      2.42831620957679E-16  -2.30424454065293E-17   2.19789175551150E-16  -6.56811997184804E-15   1.00000000000000E-01
      1.00000000000000E-01   0.00000000000000E+00   0.00000000000000E+00   1.63916753556015E-05   1.33731841965836E-20
      1.63916753556015E-05   7.47868424288580E-16
      3.22579754123852E-01
      9.67739262371556E-01   9.67739262371556E-01   0.00000000000000E+00   0.00000000000000E+00   0.00000000000000E+00
      0.00000000000000E+00   0.00000000000000E+00   5.57325772752666E-15   0.00000000000000E+00   0.00000000000000E+00
      0.00000000000000E+00   0.00000000000000E+00  -1.85169043516426E-05  -1.07722659771431E-24  -1.85169043516426E-05
      7.26019339383910E-16   0.00000000000000E+00   0.00000000000000E+00   0.00000000000000E+00   0.00000000000000E+00
     -2.78966455325639E-17  -2.30962454906797E-17  -5.09928910232436E-17  -7.04609151524170E-15   1.00000000000000E-01
      1.00000000000000E-01   0.00000000000000E+00   0.00000000000000E+00   1.85169043516934E-05   1.33748517620570E-20
      1.85169043516934E-05   7.46814448331170E-16
      3.47579754123852E-01
      1.04273926237156E+00   1.04273926237156E+00   0.00000000000000E+00   0.00000000000000E+00   0.00000000000000E+00
      0.00000000000000E+00   0.00000000000000E+00   6.05626358823645E-15   0.00000000000000E+00   0.00000000000000E+00
      0.00000000000000E+00   0.00000000000000E+00  -2.06127266423121E-05  -1.19933295004957E-24  -2.06127266423121E-05
      7.25047487043440E-16   0.00000000000000E+00   0.00000000000000E+00   0.00000000000000E+00   0.00000000000000E+00
      3.02041787021715E-16  -2.31390440312262E-17   2.78902742990489E-16  -7.52711215755974E-15   1.00000000000000E-01
      1.00000000000000E-01   0.00000000000000E+00   0.00000000000000E+00   2.06127266420330E-05   1.33765518020132E-20
      2.06127266420330E-05   7.45801082279907E-16
      3.72579754123852E-01
      1.11773926237156E+00   1.11773926237156E+00   0.00000000000000E+00   0.00000000000000E+00   0.00000000000000E+00
      0.00000000000000E+00   0.00000000000000E+00   6.54167400286871E-15   0.00000000000000E+00   0.00000000000000E+00
      0.00000000000000E+00   0.00000000000000E+00  -2.26770323706118E-05  -1.31962543913118E-24  -2.26770323706118E-05
      7.24104491684823E-16   0.00000000000000E+00   0.00000000000000E+00   0.00000000000000E+00   0.00000000000000E+00
     -1.35056237364662E-16  -2.31738642171984E-17  -1.58230101581861E-16  -8.01060082182817E-15   1.00000000000000E-01
      1.00000000000000E-01   0.00000000000000E+00   0.00000000000000E+00   2.26770323707698E-05   1.33782712440549E-20
      2.26770323707698E-05   7.44822327274738E-16
      3.97579754123852E-01
      1.19273926237156E+00   1.19273926237156E+00   0.00000000000000E+00   0.00000000000000E+00   0.00000000000000E+00
      0.00000000000000E+00   0.00000000000000E+00   7.02906910382448E-15   0.00000000000000E+00   0.00000000000000E+00
      0.00000000000000E+00   0.00000000000000E+00  -2.47086272497160E-05  -1.43803196252342E-24  -2.47086272497160E-05
      7.23186784984766E-16   0.00000000000000E+00   0.00000000000000E+00   0.00000000000000E+00   0.00000000000000E+00
     -1.25442977190475E-11  -2.32027325202946E-17  -1.25443209217800E-11  -8.49612936931141E-15   1.00000000000000E-01
      1.00000000000000E-01   0.00000000000000E+00   0.00000000000000E+00   2.47086397940367E-05   1.33800004053873E-20
      2.47086397940367E-05   7.43873480502204E-16
      4.22579754123852E-01
      1.26773926237156E+00   1.26773926237156E+00   0.00000000000000E+00   0.00000000000000E+00   0.00000000000000E+00
      0.00000000000000E+00   0.00000000000000E+00   7.51813111471262E-15   0.00000000000000E+00   0.00000000000000E+00
      0.00000000000000E+00   0.00000000000000E+00  -2.67068093109131E-05  -1.55450902670670E-24  -2.67068093109131E-05
      7.22291433037012E-16   0.00000000000000E+00   0.00000000000000E+00   0.00000000000000E+00   0.00000000000000E+00
     -7.60012978936160E-12  -2.32270380358744E-17  -7.60015301639964E-12  -8.98337331503515E-15   1.00000000000000E-01
      1.00000000000000E-01   0.00000000000000E+00   0.00000000000000E+00   2.67068169110659E-05   1.33817318016618E-20
      2.67068169110659E-05   7.42950767285564E-16
      4.47579754123852E-01
      1.34273926237156E+00   1.34273926237156E+00   0.00000000000000E+00   0.00000000000000E+00   0.00000000000000E+00
      0.00000000000000E+00   0.00000000000000E+00   8.00861289453883E-15   0.00000000000000E+00   0.00000000000000E+00
      0.00000000000000E+00   0.00000000000000E+00  -2.86714838365502E-05  -1.66904987685328E-24  -2.86714838365502E-05
      7.21415986848338E-16   0.00000000000000E+00   0.00000000000000E+00   0.00000000000000E+00   0.00000000000000E+00
     -4.55848940798415E-12  -2.32477863423025E-17  -4.55851265577049E-12  -9.47207998043086E-15   1.00000000000000E-01
      1.00000000000000E-01   0.00000000000000E+00   0.00000000000000E+00   2.86714883950627E-05   1.33834599949744E-20
      2.86714883950627E-05   7.42051099043741E-16
      4.72579754123852E-01
      1.41773926237156E+00   1.41773926237156E+00   0.00000000000000E+00   0.00000000000000E+00   0.00000000000000E+00
      0.00000000000000E+00   0.00000000000000E+00   8.50031870010001E-15   0.00000000000000E+00   0.00000000000000E+00
      0.00000000000000E+00   0.00000000000000E+00  -3.06028190861878E-05  -1.78166259845583E-24  -3.06028190861878E-05
      7.20558378226469E-16   0.00000000000000E+00   0.00000000000000E+00   0.00000000000000E+00   0.00000000000000E+00
     -2.63795415636934E-12  -2.32657062595758E-17  -2.63797742207560E-12  -9.96204898769714E-15   1.00000000000000E-01
      1.00000000000000E-01   0.00000000000000E+00   0.00000000000000E+00   3.06028217241651E-05   1.33851807953815E-20
      3.06028217241651E-05   7.41171909370713E-16
      4.97579754123852E-01
      1.49273926237156E+00   1.49273926237156E+00   0.00000000000000E+00   0.00000000000000E+00   0.00000000000000E+00
      0.00000000000000E+00   0.00000000000000E+00   8.99309063493295E-15   0.00000000000000E+00   0.00000000000000E+00
      0.00000000000000E+00   0.00000000000000E+00  -3.25012327313692E-05  -1.89237002672297E-24  -3.25012327313692E-05
      7.19716842349240E-16   0.00000000000000E+00   0.00000000000000E+00   0.00000000000000E+00   0.00000000000000E+00
     -1.39135664336142E-12  -2.32813424693125E-17  -1.39137992470389E-12  -1.04531185153221E-14   1.00000000000000E-01
      1.00000000000000E-01   0.00000000000000E+00   0.00000000000000E+00   3.25012341227489E-05   1.33868910491205E-20
      3.25012341227490E-05   7.40311038039941E-16
      5.22579754123852E-01
      1.56773926237156E+00   1.56773926237156E+00   0.00000000000000E+00   0.00000000000000E+00   0.00000000000000E+00
      0.00000000000000E+00   0.00000000000000E+00   9.48679942384630E-15   0.00000000000000E+00   0.00000000000000E+00
      0.00000000000000E+00   0.00000000000000E+00  -3.43673267477991E-05  -2.00120595779269E-24  -3.43673267477991E-05
      7.18889860097969E-16   0.00000000000000E+00   0.00000000000000E+00   0.00000000000000E+00   0.00000000000000E+00
     -7.08741151201493E-13  -2.32951098457531E-17  -7.08764446311338E-13  -1.09451559309779E-14   1.00000000000000E-01
      1.00000000000000E-01   0.00000000000000E+00   0.00000000000000E+00   3.43673274565633E-05   1.33885884069991E-20
      3.43673274565633E-05   7.39466647033673E-16
      5.47579754123852E-01
      1.64273926237156E+00   1.64273926237156E+00   0.00000000000000E+00   0.00000000000000E+00   0.00000000000000E+00
      0.00000000000000E+00   0.00000000000000E+00   9.98133786164697E-15   0.00000000000000E+00   0.00000000000000E+00
      0.00000000000000E+00   0.00000000000000E+00  -3.62018379923685E-05  -2.10821221834832E-24  -3.62018379923685E-05
      7.18076113983884E-16   0.00000000000000E+00   0.00000000000000E+00   0.00000000000000E+00   0.00000000000000E+00
     -3.52917691994329E-13  -2.33073297351779E-17  -3.52940999324064E-13  -1.14380511337637E-14   1.00000000000000E-01
      1.00000000000000E-01   0.00000000000000E+00   0.00000000000000E+00   3.62018383453092E-05   1.33902711471141E-20
      3.62018383453092E-05   7.38637158133029E-16
      5.72579754123852E-01
      1.71773926237156E+00   1.71773926237156E+00   0.00000000000000E+00   0.00000000000000E+00   0.00000000000000E+00
      0.00000000000000E+00   0.00000000000000E+00   1.04766160522130E-14   0.00000000000000E+00   0.00000000000000E+00
      0.00000000000000E+00   0.00000000000000E+00  -3.80056000481463E-05  -2.21343640425405E-24  -3.80056000481463E-05
      7.17274453854746E-16   0.00000000000000E+00   0.00000000000000E+00   0.00000000000000E+00   0.00000000000000E+00
     -1.54376959754535E-13  -2.33182547736769E-17  -1.54400278009309E-13  -1.19317117115855E-14   1.00000000000000E-01
      1.00000000000000E-01   0.00000000000000E+00   0.00000000000000E+00   3.80056002025462E-05   1.33919380393748E-20
      3.80056002025462E-05   7.37821205517758E-16
      5.97579754123852E-01
      1.79273926237156E+00   1.79273926237156E+00   0.00000000000000E+00   0.00000000000000E+00   0.00000000000000E+00
      0.00000000000000E+00   0.00000000000000E+00   1.09725578771927E-14   0.00000000000000E+00   0.00000000000000E+00
      0.00000000000000E+00   0.00000000000000E+00  -3.97795134604175E-05  -2.31693013638209E-24  -3.97795134604175E-05
      7.16483869791361E-16   0.00000000000000E+00   0.00000000000000E+00   0.00000000000000E+00   0.00000000000000E+00
     -4.62506159493620E-14  -2.33280862342369E-17  -4.62739440355963E-14  -1.24260593460642E-14   1.00000000000000E-01
      1.00000000000000E-01   0.00000000000000E+00   0.00000000000000E+00   3.97795135066911E-05   1.33935882406055E-20
      3.97795135066911E-05   7.37017599080260E-16
      6.22579754123852E-01
      1.86773926237156E+00   1.86773926237156E+00   0.00000000000000E+00   0.00000000000000E+00   0.00000000000000E+00
      0.00000000000000E+00   0.00000000000000E+00   1.14690983287860E-14   0.00000000000000E+00   0.00000000000000E+00
      0.00000000000000E+00   0.00000000000000E+00  -4.15245223753802E-05  -2.41874766499946E-24  -4.15245223753802E-05
      7.15703470392430E-16   0.00000000000000E+00   0.00000000000000E+00   0.00000000000000E+00   0.00000000000000E+00
      9.62128007699726E-15  -2.33369863894066E-17   9.59794309060785E-15  -1.29210270947408E-14   1.00000000000000E-01
      1.00000000000000E-01   0.00000000000000E+00   0.00000000000000E+00   4.15245223657819E-05   1.33952212125201E-20
      4.15245223657819E-05   7.36225295562462E-16
      6.47579754123852E-01
      1.94273926237156E+00   1.94273926237156E+00   0.00000000000000E+00   0.00000000000000E+00   0.00000000000000E+00
      0.00000000000000E+00   0.00000000000000E+00   1.19661814624043E-14   0.00000000000000E+00   0.00000000000000E+00
      0.00000000000000E+00   0.00000000000000E+00  -4.32415961671801E-05  -2.51894479816597E-24  -4.32415961671801E-05
      7.14932465168051E-16   0.00000000000000E+00   0.00000000000000E+00   0.00000000000000E+00   0.00000000000000E+00
      3.57155624701221E-14  -2.33450874773534E-17   3.56922173826447E-14  -1.34165573030932E-14   1.00000000000000E-01
      1.00000000000000E-01   0.00000000000000E+00   0.00000000000000E+00   4.32415961314876E-05   1.33968366570502E-20
      4.32415961314876E-05   7.35443375520896E-16
      6.72579754123852E-01
      2.01773926237156E+00   2.01773926237156E+00   0.00000000000000E+00   0.00000000000000E+00   0.00000000000000E+00
      0.00000000000000E+00   0.00000000000000E+00   1.24637588023745E-14   0.00000000000000E+00   0.00000000000000E+00
      0.00000000000000E+00   0.00000000000000E+00  -4.49317149968063E-05  -2.61757804555408E-24  -4.49317149968063E-05
      7.14170150114705E-16   0.00000000000000E+00   0.00000000000000E+00   0.00000000000000E+00   0.00000000000000E+00
      4.54190897515862E-14  -2.33524983088258E-17   4.53957372532774E-14  -1.39125999772020E-14   1.00000000000000E-01
      1.00000000000000E-01   0.00000000000000E+00   0.00000000000000E+00   4.49317149514102E-05   1.33984344648612E-20
      4.49317149514102E-05   7.34671024712794E-16
      6.97579754123852E-01
      2.09273926237156E+00   2.09273926237156E+00   0.00000000000000E+00   0.00000000000000E+00   0.00000000000000E+00
      0.00000000000000E+00   0.00000000000000E+00   1.29617880843833E-14   0.00000000000000E+00   0.00000000000000E+00
      0.00000000000000E+00   0.00000000000000E+00  -4.65958585045385E-05  -2.71470394692652E-24  -4.65958585045385E-05
      7.13415895787969E-16   0.00000000000000E+00   0.00000000000000E+00   0.00000000000000E+00   0.00000000000000E+00
      4.63147087671313E-14  -2.33593092068302E-17   4.62913494579245E-14  -1.44091114990612E-14   1.00000000000000E-01
      1.00000000000000E-01   0.00000000000000E+00   0.00000000000000E+00   4.65958584582468E-05   1.34000146748326E-20
      4.65958584582468E-05   7.33907518890108E-16
      7.22579754123852E-01
      2.16773926237156E+00   2.16773926237156E+00   0.00000000000000E+00   0.00000000000000E+00   0.00000000000000E+00
      0.00000000000000E+00   0.00000000000000E+00   1.34602322520546E-14   0.00000000000000E+00   0.00000000000000E+00
      0.00000000000000E+00   0.00000000000000E+00  -4.82349970122022E-05  -2.81037855617628E-24  -4.82349970122022E-05
      7.12669137360255E-16   0.00000000000000E+00   0.00000000000000E+00   0.00000000000000E+00   0.00000000000000E+00
      4.27570878330235E-14  -2.33655957490416E-17   4.27337222372745E-14  -1.49060536006732E-14   1.00000000000000E-01
      1.00000000000000E-01   0.00000000000000E+00   0.00000000000000E+00   4.82349969694681E-05   1.34015774408807E-20
      4.82349969694681E-05   7.33152211258468E-16
      7.47579754123852E-01
      2.24273926237156E+00   2.24273926237156E+00   0.00000000000000E+00   0.00000000000000E+00   0.00000000000000E+00