DF-ISE text

Info {
  version   = 1.0
  type      = xyplot
  datasets  = [
    "time"
    "Gate OuterVoltage" "Gate InnerVoltage" "Gate QuasiFermiPotential" "Gate DisplacementCurrent" "Gate eCurrent"
    "Gate hCurrent" "Gate TotalCurrent" "Gate Charge" "Body OuterVoltage" "Body InnerVoltage"
    "Body QuasiFermiPotential" "Body DisplacementCurrent" "Body eCurrent" "Body hCurrent" "Body TotalCurrent"
    "Body Charge" ]
  functions = [
    Time
    OuterVoltage InnerVoltage QuasiFermiPotential DisplacementCurrent eCurrent
    hCurrent TotalCurrent Charge OuterVoltage InnerVoltage
    QuasiFermiPotential DisplacementCurrent eCurrent hCurrent TotalCurrent
    Charge ]
}

Data {
      0.00000000000000E+00
     -3.00000000000000E+00  -3.00000000000001E+00   0.00000000000000E+00   0.00000000000000E+00   0.00000000000000E+00
      0.00000000000000E+00   0.00000000000000E+00  -4.45949219179740E-15   0.00000000000000E+00   0.00000000000000E+00
      0.00000000000000E+00   0.00000000000000E+00  -1.36253652634957E-28   1.36253652634957E-28   0.00000000000000E+00
      4.45949219179740E-15
      1.00000000000000E-02
     -2.94000000000000E+00  -2.94000000000000E+00   0.00000000000000E+00   0.00000000000000E+00   0.00000000000000E+00
      0.00000000000000E+00   0.00000000000000E+00  -4.33801633012866E-15   0.00000000000000E+00   0.00000000000000E+00
      0.00000000000000E+00   0.00000000000000E+00   6.93705607189856E-31  -6.93705607189856E-31   0.00000000000000E+00
      4.33801633012866E-15
      2.26000000000000E-02
     -2.86440000000000E+00  -2.86440000000000E+00   0.00000000000000E+00   0.00000000000000E+00   0.00000000000000E+00
      0.00000000000000E+00   0.00000000000000E+00  -4.18506630485774E-15   0.00000000000000E+00   0.00000000000000E+00
      0.00000000000000E+00   0.00000000000000E+00   3.43315022499948E-33  -3.43315022499948E-33   0.00000000000000E+00
      4.18506630485774E-15
      2.50000000000000E-02
     -2.85000000000000E+00  -2.85000000000000E+00   0.00000000000000E+00   0.00000000000000E+00   0.00000000000000E+00
      0.00000000000000E+00   0.00000000000000E+00  -4.15594735129031E-15   0.00000000000000E+00   0.00000000000000E+00
      0.00000000000000E+00   0.00000000000000E+00   5.57335324103530E-31  -5.57335324103530E-31   0.00000000000000E+00
      4.15594735129031E-15
      4.08760000000000E-02
     -2.75474400000000E+00  -2.75474400000000E+00   0.00000000000000E+00   0.00000000000000E+00   0.00000000000000E+00
      0.00000000000000E+00   0.00000000000000E+00  -3.96344713416617E-15   0.00000000000000E+00   0.00000000000000E+00
      0.00000000000000E+00   0.00000000000000E+00   3.88796744110705E-33  -3.88796744110705E-33   0.00000000000000E+00
      3.96344713416618E-15
      5.00000000000000E-02
     -2.70000000000000E+00  -2.70000000000000E+00   0.00000000000000E+00   0.00000000000000E+00   0.00000000000000E+00
      0.00000000000000E+00   0.00000000000000E+00  -3.85291645255361E-15   0.00000000000000E+00   0.00000000000000E+00
      0.00000000000000E+00   0.00000000000000E+00   3.46352112459083E-33  -3.46352112459083E-33   0.00000000000000E+00
      3.85291645255360E-15
      7.00037600000000E-02
     -2.57997744000000E+00  -2.57997744000000E+00   0.00000000000000E+00   0.00000000000000E+00   0.00000000000000E+00
      0.00000000000000E+00   0.00000000000000E+00  -3.61086057090524E-15   0.00000000000000E+00   0.00000000000000E+00
      0.00000000000000E+00   0.00000000000000E+00   3.92597491529476E-33  -3.92597491529476E-33   0.00000000000000E+00
      3.61086057090524E-15
      7.50000000000000E-02
     -2.55000000000000E+00  -2.55000000000000E+00   0.00000000000000E+00   0.00000000000000E+00   0.00000000000000E+00
      0.00000000000000E+00   0.00000000000000E+00  -3.55046607580360E-15   0.00000000000000E+00   0.00000000000000E+00
      0.00000000000000E+00   0.00000000000000E+00   3.50157588221139E-33  -3.50157588221139E-33   0.00000000000000E+00
      3.55046607580360E-15
      1.00000000000000E-01
     -2.40000000000000E+00  -2.40000000000000E+00   0.00000000000000E+00   0.00000000000000E+00   0.00000000000000E+00
      0.00000000000000E+00   0.00000000000000E+00  -3.24867844119078E-15   0.00000000000000E+00   0.00000000000000E+00
      0.00000000000000E+00   0.00000000000000E+00   6.74364892357763E-33  -6.74364892357763E-33   0.00000000000000E+00
      3.24867844119078E-15
      1.25000000000000E-01
     -2.25000000000000E+00  -2.25000000000000E+00   0.00000000000000E+00   0.00000000000000E+00   0.00000000000000E+00
      0.00000000000000E+00   0.00000000000000E+00  -2.94765784314148E-15   0.00000000000000E+00   0.00000000000000E+00
      0.00000000000000E+00   0.00000000000000E+00   3.37560347074239E-33  -3.37560347074239E-33   0.00000000000000E+00
      2.94765784314148E-15
      1.50000000000000E-01
     -2.10000000000000E+00  -2.10000000000000E+00   0.00000000000000E+00   0.00000000000000E+00   0.00000000000000E+00
      0.00000000000000E+00   0.00000000000000E+00  -2.64754079835229E-15   0.00000000000000E+00   0.00000000000000E+00
      0.00000000000000E+00   0.00000000000000E+00   3.54041583628872E-33  -3.54041583628872E-33   0.00000000000000E+00
      2.64754079835229E-15
      1.75000000000000E-01
     -1.95000000000000E+00  -1.95000000000000E+00   0.00000000000000E+00   0.00000000000000E+00   0.00000000000000E+00
      0.00000000000000E+00   0.00000000000000E+00  -2.34851263131610E-15   0.00000000000000E+00   0.00000000000000E+00
      0.00000000000000E+00   0.00000000000000E+00   3.51388840546235E-33  -3.51388840546235E-33   0.00000000000000E+00
      2.34851263131610E-15
      2.00000000000000E-01
     -1.80000000000000E+00  -1.80000000000000E+00   0.00000000000000E+00   0.00000000000000E+00   0.00000000000000E+00
      0.00000000000000E+00   0.00000000000000E+00  -2.05083579368155E-15   0.00000000000000E+00   0.00000000000000E+00
      0.00000000000000E+00   0.00000000000000E+00   3.54589995680062E-33  -3.54589995680062E-33   0.00000000000000E+00
      2.05083579368155E-15
      2.25000000000000E-01
     -1.65000000000000E+00  -1.65000000000000E+00   0.00000000000000E+00   0.00000000000000E+00   0.00000000000000E+00
      0.00000000000000E+00   0.00000000000000E+00  -1.75490095640731E-15   0.00000000000000E+00   0.00000000000000E+00
      0.00000000000000E+00   0.00000000000000E+00   3.52174373834899E-33  -3.52174373834899E-33   0.00000000000000E+00
      1.75490095640731E-15
      2.50000000000000E-01
     -1.50000000000000E+00  -1.50000000000000E+00   0.00000000000000E+00   0.00000000000000E+00   0.00000000000000E+00
      0.00000000000000E+00   0.00000000000000E+00  -1.46132591714078E-15   0.00000000000000E+00   0.00000000000000E+00
      0.00000000000000E+00   0.00000000000000E+00   3.60681705767994E-33  -3.60681705767994E-33   0.00000000000000E+00
      1.46132591714078E-15
      2.75000000000000E-01
     -1.35000000000000E+00  -1.35000000000000E+00   0.00000000000000E+00   0.00000000000000E+00   0.00000000000000E+00
      0.00000000000000E+00   0.00000000000000E+00  -1.17116539970191E-15   0.00000000000000E+00   0.00000000000000E+00
      0.00000000000000E+00   0.00000000000000E+00   3.59100439278974E-33  -3.59100439278974E-33   0.00000000000000E+00
      1.17116539970191E-15
      3.00000000000000E-01
     -1.20000000000000E+00  -1.20000000000000E+00   0.00000000000000E+00   0.00000000000000E+00   0.00000000000000E+00
      0.00000000000000E+00   0.00000000000000E+00  -8.86413125371307E-16   0.00000000000000E+00   0.00000000000000E+00
      0.00000000000000E+00   0.00000000000000E+00   4.05517080055776E-33  -4.05517080055776E-33   0.00000000000000E+00
      8.86413125371308E-16
      3.25000000000000E-01
     -1.05000000000000E+00  -1.05000000000000E+00   0.00000000000000E+00   0.00000000000000E+00   0.00000000000000E+00
      0.00000000000000E+00   0.00000000000000E+00  -6.11414153544520E-16   0.00000000000000E+00   0.00000000000000E+00
      0.00000000000000E+00   0.00000000000000E+00   3.66657297771451E-33  -3.66657297771451E-33   0.00000000000000E+00
      6.11414153544520E-16
      3.50000000000000E-01
     -9.00000000000000E-01  -9.00000000000000E-01   0.00000000000000E+00   0.00000000000000E+00   0.00000000000000E+00
      0.00000000000000E+00   0.00000000000000E+00  -3.57762124442934E-16   0.00000000000000E+00   0.00000000000000E+00
      0.00000000000000E+00   0.00000000000000E+00   8.98017506356728E-33  -8.98017506356728E-33   0.00000000000000E+00
      3.57762124442934E-16
      3.75000000000000E-01
     -7.50000000000000E-01  -7.49999999999999E-01   0.00000000000000E+00   0.00000000000000E+00   0.00000000000000E+00
      0.00000000000000E+00   0.00000000000000E+00  -1.62401904798348E-16   0.00000000000000E+00   0.00000000000000E+00
      0.00000000000000E+00   0.00000000000000E+00   4.76912231826347E-33  -4.76912231826347E-33   0.00000000000000E+00
      1.62401904798348E-16
      4.00000000000000E-01
     -6.00000000000000E-01  -5.99999999999999E-01   0.00000000000000E+00   0.00000000000000E+00   0.00000000000000E+00
      0.00000000000000E+00   0.00000000000000E+00  -6.05106193066653E-17   0.00000000000000E+00   0.00000000000000E+00
      0.00000000000000E+00   0.00000000000000E+00   7.61572950627119E-33  -7.61572950627119E-33   0.00000000000000E+00
      6.05106193066652E-17
      4.25000000000000E-01
     -4.49999999999999E-01  -4.49999999999999E-01   0.00000000000000E+00   0.00000000000000E+00   0.00000000000000E+00
      0.00000000000000E+00   0.00000000000000E+00   1.81080675303667E-17   0.00000000000000E+00   0.00000000000000E+00
      0.00000000000000E+00   0.00000000000000E+00  -4.18284205888609E-31   4.18284205888609E-31   0.00000000000000E+00
     -1.81080675303667E-17
      4.50000000000000E-01
     -2.99999999999999E-01  -2.99999999999999E-01   0.00000000000000E+00   0.00000000000000E+00   0.00000000000000E+00
      0.00000000000000E+00   0.00000000000000E+00   9.58419124756974E-17   0.00000000000000E+00   0.00000000000000E+00
      0.00000000000000E+00   0.00000000000000E+00   1.13850055933849E-24  -1.13850055933849E-24   0.00000000000000E+00
     -9.58419124756976E-17
      4.75000000000000E-01
     -1.49999999999999E-01  -1.49999999999999E-01   0.00000000000000E+00   0.00000000000000E+00   0.00000000000000E+00
      0.00000000000000E+00   0.00000000000000E+00   1.73596330182656E-16   0.00000000000000E+00   0.00000000000000E+00
      0.00000000000000E+00   0.00000000000000E+00   3.91382161971638E-31  -3.91382161971638E-31   0.00000000000000E+00
     -1.73596330182656E-16
      5.00000000000000E-01
      8.88178419700125E-16   8.88178419700125E-16   0.00000000000000E+00   0.00000000000000E+00   0.00000000000000E+00
      0.00000000000000E+00   0.00000000000000E+00   2.54310249406436E-16   0.00000000000000E+00   0.00000000000000E+00
      0.00000000000000E+00   0.00000000000000E+00  -9.12813060254342E-29   9.12813060254342E-29   0.00000000000000E+00
     -2.54310249406436E-16
      5.25000000000000E-01
      1.50000000000001E-01   1.50000000000001E-01   0.00000000000000E+00   0.00000000000000E+00   0.00000000000000E+00
      0.00000000000000E+00   0.00000000000000E+00   3.91713014919845E-16   0.00000000000000E+00   0.00000000000000E+00
      0.00000000000000E+00   0.00000000000000E+00   1.79639606068409E-28  -1.79639606068409E-28   0.00000000000000E+00
     -3.91713014919845E-16
      5.50000000000000E-01
      3.00000000000001E-01   3.00000000000001E-01   0.00000000000000E+00   0.00000000000000E+00   0.00000000000000E+00
      0.00000000000000E+00   0.00000000000000E+00   6.25976500007291E-16   0.00000000000000E+00   0.00000000000000E+00
      0.00000000000000E+00   0.00000000000000E+00   2.11493897415301E-31  -2.11493897415301E-31   0.00000000000000E+00
     -6.25976500007290E-16
      5.75000000000000E-01
      4.50000000000001E-01   4.50000000000001E-01   0.00000000000000E+00   0.00000000000000E+00   0.00000000000000E+00
      0.00000000000000E+00   0.00000000000000E+00   8.95437135132913E-16   0.00000000000000E+00   0.00000000000000E+00
      0.00000000000000E+00   0.00000000000000E+00   3.80909671164355E-28  -3.80909671164355E-28   0.00000000000000E+00
     -8.95437135132914E-16
      6.00000000000000E-01
      6.00000000000001E-01   6.00000000000002E-01   0.00000000000000E+00   0.00000000000000E+00   0.00000000000000E+00
      0.00000000000000E+00   0.00000000000000E+00   1.17795279327646E-15   0.00000000000000E+00   0.00000000000000E+00
      0.00000000000000E+00   0.00000000000000E+00   1.08959914623772E-29  -1.08959914623772E-29   0.00000000000000E+00
     -1.17795279327646E-15
      6.25000000000000E-01
      7.50000000000001E-01   7.50000000000002E-01   0.00000000000000E+00   0.00000000000000E+00   0.00000000000000E+00
      0.00000000000000E+00   0.00000000000000E+00   1.46698544693002E-15   0.00000000000000E+00   0.00000000000000E+00
      0.00000000000000E+00   0.00000000000000E+00  -1.10418132568311E-30   1.10418132568311E-30   0.00000000000000E+00
     -1.46698544693002E-15
      6.50000000000000E-01
      9.00000000000001E-01   9.00000000000001E-01   0.00000000000000E+00   0.00000000000000E+00   0.00000000000000E+00
      0.00000000000000E+00   0.00000000000000E+00   1.75990603489109E-15   0.00000000000000E+00   0.00000000000000E+00
      0.00000000000000E+00   0.00000000000000E+00  -8.80599719369254E-31   8.80599719369254E-31   0.00000000000000E+00
     -1.75990603489108E-15
      6.75000000000000E-01
      1.05000000000000E+00   1.05000000000000E+00   0.00000000000000E+00   0.00000000000000E+00   0.00000000000000E+00
      0.00000000000000E+00   0.00000000000000E+00   2.05542328257105E-15   0.00000000000000E+00   0.00000000000000E+00
      0.00000000000000E+00   0.00000000000000E+00   1.71874469948768E-29  -1.71874469948768E-29   0.00000000000000E+00
     -2.05542328257105E-15
      7.00000000000000E-01
      1.20000000000000E+00   1.20000000000000E+00   0.00000000000000E+00   0.00000000000000E+00   0.00000000000000E+00
      0.00000000000000E+00   0.00000000000000E+00   2.35281488507030E-15   0.00000000000000E+00   0.00000000000000E+00
      0.00000000000000E+00   0.00000000000000E+00  -4.30886389049299E-30   4.30886389049299E-30   0.00000000000000E+00
     -2.35281488507030E-15
      7.25000000000000E-01
      1.35000000000000E+00   1.35000000000000E+00   0.00000000000000E+00   0.00000000000000E+00   0.00000000000000E+00
      0.00000000000000E+00   0.00000000000000E+00   2.65163799766304E-15   0.00000000000000E+00   0.00000000000000E+00
      0.00000000000000E+00   0.00000000000000E+00   3.11045102193471E-30  -3.11045102193471E-30   0.00000000000000E+00
     -2.65163799766304E-15
      7.50000000000000E-01
      1.50000000000000E+00   1.50000000000000E+00   0.00000000000000E+00   0.00000000000000E+00   0.00000000000000E+00
      0.00000000000000E+00   0.00000000000000E+00   2.95160162786023E-15   0.00000000000000E+00   0.00000000000000E+00
      0.00000000000000E+00   0.00000000000000E+00   5.09697139581565E-31  -5.09697139581565E-31   0.00000000000000E+00
     -2.95160162786022E-15
      7.75000000000000E-01
      1.65000000000000E+00   1.65000000000000E+00   0.00000000000000E+00   0.00000000000000E+00   0.00000000000000E+00
      0.00000000000000E+00   0.00000000000000E+00   3.25250368971949E-15   0.00000000000000E+00   0.00000000000000E+00
      0.00000000000000E+00   0.00000000000000E+00   3.12205854944372E-32  -3.12205854944372E-32   0.00000000000000E+00
     -3.25250368971949E-15
      8.00000000000000E-01
      1.80000000000000E+00   1.80000000000000E+00   0.00000000000000E+00   0.00000000000000E+00   0.00000000000000E+00
      0.00000000000000E+00   0.00000000000000E+00   3.55419724839254E-15   0.00000000000000E+00   0.00000000000000E+00
      0.00000000000000E+00   0.00000000000000E+00  -5.53863644437221E-32   5.53863644437221E-32   0.00000000000000E+00
     -3.55419724839254E-15
      8.25000000000000E-01
      1.95000000000000E+00   1.95000000000000E+00   0.00000000000000E+00   0.00000000000000E+00   0.00000000000000E+00
      0.00000000000000E+00   0.00000000000000E+00   3.85657122697682E-15   0.00000000000000E+00   0.00000000000000E+00
      0.00000000000000E+00   0.00000000000000E+00   5.35053504595824E-31  -5.35053504595824E-31   0.00000000000000E+00
     -3.85657122697682E-15
      8.50000000000000E-01
      2.10000000000000E+00   2.10000000000000E+00   0.00000000000000E+00   0.00000000000000E+00   0.00000000000000E+00
      0.00000000000000E+00   0.00000000000000E+00   4.15953881678266E-15   0.00000000000000E+00   0.00000000000000E+00
      0.00000000000000E+00   0.00000000000000E+00  -2.46964095855117E-27   2.46964095855117E-27   0.00000000000000E+00
     -4.15953881678266E-15
      8.75000000000000E-01
      2.25000000000000E+00   2.25000000000000E+00   0.00000000000000E+00   0.00000000000000E+00   0.00000000000000E+00
      0.00000000000000E+00   0.00000000000000E+00   4.46303023286231E-15   0.00000000000000E+00   0.00000000000000E+00
      0.00000000000000E+00   0.00000000000000E+00   5.61596904597196E-28  -5.61596904597196E-28   0.00000000000000E+00
     -4.46303023286231E-15
      9.00000000000000E-01
      2.40000000000000E+00   2.40000000000001E+00   0.00000000000000E+00   0.00000000000000E+00   0.00000000000000E+00
      0.00000000000000E+00   0.00000000000000E+00   4.76698803009176E-15   0.00000000000000E+00   0.00000000000000E+00
      0.00000000000000E+00   0.00000000000000E+00   1.40581293816761E-27  -1.40581293816761E-27   0.00000000000000E+00
     -4.76698803009176E-15
      9.25000000000000E-01
      2.55000000000000E+00   2.55000000000001E+00   0.00000000000000E+00   0.00000000000000E+00   0.00000000000000E+00
      0.00000000000000E+00   0.00000000000000E+00   5.07136398852778E-15   0.00000000000000E+00   0.00000000000000E+00
      0.00000000000000E+00   0.00000000000000E+00   9.17403984088305E-28  -9.17403984088305E-28   0.00000000000000E+00
     -5.07136398852778E-15
      9.50000000000001E-01
      2.70000000000000E+00   2.70000000000001E+00   0.00000000000000E+00   0.00000000000000E+00   0.00000000000000E+00
      0.00000000000000E+00   0.00000000000000E+00   5.37611698336079E-15   0.00000000000000E+00   0.00000000000000E+00
      0.00000000000000E+00   0.00000000000000E+00   7.25845531564581E-28  -7.25845531564581E-28   0.00000000000000E+00
     -5.37611698336079E-15
      9.75000000000001E-01
      2.85000000000000E+00   2.85000000000001E+00   0.00000000000000E+00   0.00000000000000E+00   0.00000000000000E+00
      0.00000000000000E+00   0.00000000000000E+00   5.68121149059148E-15   0.00000000000000E+00   0.00000000000000E+00
      0.00000000000000E+00   0.00000000000000E+00  -1.92625232358742E-28   1.92625232358742E-28   0.00000000000000E+00
     -5.68121149059149E-15
      1.00000000000000E+00
      3.00000000000000E+00   3.00000000000001E+00   0.00000000000000E+00   0.00000000000000E+00   0.00000000000000E+00
      0.00000000000000E+00   0.00000000000000E+00   5.98661651085928E-15   0.00000000000000E+00   0.00000000000000E+00
      0.00000000000000E+00   0.00000000000000E+00  -1.09676101470610E-27   1.09676101470610E-27   0.00000000000000E+00
     -5.98661651085928E-15
}
