DF-ISE text

Info {
  version   = 1.0
  type      = xyplot
  datasets  = [
    "time"
    "Gate OuterVoltage" "Gate InnerVoltage" "Gate QuasiFermiPotential" "Gate DisplacementCurrent" "Gate eCurrent"
    "Gate hCurrent" "Gate TotalCurrent" "Gate Charge" "Body OuterVoltage" "Body InnerVoltage"
    "Body QuasiFermiPotential" "Body DisplacementCurrent" "Body eCurrent" "Body hCurrent" "Body TotalCurrent"
    "Body Charge" ]
  functions = [
    Time
    OuterVoltage InnerVoltage QuasiFermiPotential DisplacementCurrent eCurrent
    hCurrent TotalCurrent Charge OuterVoltage InnerVoltage
    QuasiFermiPotential DisplacementCurrent eCurrent hCurrent TotalCurrent
    Charge ]
}

Data {
      0.00000000000000E+00
      0.00000000000000E+00   0.00000000000000E+00   0.00000000000000E+00   0.00000000000000E+00   0.00000000000000E+00
      0.00000000000000E+00   0.00000000000000E+00   2.54310249401499E-16   0.00000000000000E+00   0.00000000000000E+00
      0.00000000000000E+00   0.00000000000000E+00   2.76280156416603E-31  -2.76280156416603E-31   0.00000000000000E+00
     -2.54310249401499E-16
      0.00000000000000E+00
      0.00000000000000E+00   0.00000000000000E+00   0.00000000000000E+00   0.00000000000000E+00   0.00000000000000E+00
      0.00000000000000E+00   0.00000000000000E+00   2.54310249406391E-16   0.00000000000000E+00   0.00000000000000E+00
      0.00000000000000E+00   0.00000000000000E+00   2.64981055954364E-31  -2.64981055954364E-31   0.00000000000000E+00
     -2.54310249406391E-16
      1.00000000000000E-01
     -3.00000000000000E-01  -3.00000000000000E-01   0.00000000000000E+00   0.00000000000000E+00   0.00000000000000E+00
      0.00000000000000E+00   0.00000000000000E+00   9.58419124756742E-17   0.00000000000000E+00   0.00000000000000E+00
      0.00000000000000E+00   0.00000000000000E+00   4.31036795403106E-31  -4.31036795403106E-31   0.00000000000000E+00
     -9.58419124756740E-17
      2.20000000000000E-01
     -6.60000000000000E-01  -6.60000000000000E-01   0.00000000000000E+00   0.00000000000000E+00   0.00000000000000E+00
      0.00000000000000E+00   0.00000000000000E+00  -9.45093965753225E-17   0.00000000000000E+00   0.00000000000000E+00
      0.00000000000000E+00   0.00000000000000E+00   6.42070243212429E-33  -6.42070243212429E-33   0.00000000000000E+00
      9.45093965753224E-17
      3.66400000000000E-01
     -1.09920000000000E+00  -1.09920000000000E+00   0.00000000000000E+00   0.00000000000000E+00   0.00000000000000E+00
      0.00000000000000E+00   0.00000000000000E+00  -7.00078914132387E-16   0.00000000000000E+00   0.00000000000000E+00
      0.00000000000000E+00   0.00000000000000E+00   3.65673026597842E-29  -3.65673026597842E-29   0.00000000000000E+00
      7.00078914132387E-16
      5.42080000000000E-01
     -1.62624000000000E+00  -1.62624000000000E+00   0.00000000000000E+00   0.00000000000000E+00   0.00000000000000E+00
      0.00000000000000E+00   0.00000000000000E+00  -1.70822095582521E-15   0.00000000000000E+00   0.00000000000000E+00
      0.00000000000000E+00   0.00000000000000E+00  -1.30650079801105E-29   1.30650079801105E-29   0.00000000000000E+00
      1.70822095582521E-15
      7.56409600000000E-01
     -2.26922880000000E+00  -2.26922880000000E+00   0.00000000000000E+00   0.00000000000000E+00   0.00000000000000E+00
      0.00000000000000E+00   0.00000000000000E+00  -2.98619904779502E-15   0.00000000000000E+00   0.00000000000000E+00
      0.00000000000000E+00   0.00000000000000E+00   1.55850938654159E-30  -1.55850938654159E-30   0.00000000000000E+00
      2.98619904779502E-15
      1.00000000000000E+00
     -3.00000000000000E+00  -3.00000000000001E+00   0.00000000000000E+00   0.00000000000000E+00   0.00000000000000E+00
      0.00000000000000E+00   0.00000000000000E+00  -4.45949219179740E-15   0.00000000000000E+00   0.00000000000000E+00
      0.00000000000000E+00   0.00000000000000E+00   1.48079272694981E-28  -1.48079272694981E-28   0.00000000000000E+00
      4.45949219179740E-15
}
