DF-ISE text

Info {
  version   = 1.0
  type      = xyplot
  datasets  = [
    "frequency"
    "v(g)" "v(b)" "a(g,g)" "c(g,g)" "a(g,b)"
    "c(g,b)" "a(b,g)" "c(b,g)" "a(b,b)" "c(b,b)" ]
  functions = [
    Frequency
    Voltage Voltage Admittance Capacitance Admittance
    Capacitance Admittance Capacitance Admittance Capacitance ]
}

Data {
      5.00000000000000E+02
     -3.00000000000000E+00   0.00000000000000E+00  -1.67112512059253E-11   2.02521756882539E-15  -9.18212393132711E-17
     -2.02521756961878E-15  -9.24573374862904E-17  -2.02521756961653E-15   1.67112512059253E-12   2.02521757040991E-15
      5.00000000000000E+02
     -2.85000000000000E+00   0.00000000000000E+00  -1.67112512059253E-11   2.02198600441861E-15  -9.16102468215166E-17
     -2.02198600475685E-15  -9.28334978698489E-17  -2.02198600475111E-15   9.11522793050471E-13   2.02198600508936E-15
      5.00000000000000E+02
     -2.70000000000000E+00   0.00000000000000E+00  -1.67112512059253E-11   2.01835245376990E-15  -9.13723746575737E-17
     -2.01835245380518E-15  -9.29944878965670E-17  -2.01835245379777E-15  -2.27880698262618E-12   2.01835245383304E-15
      5.00000000000000E+02
     -2.55000000000000E+00   0.00000000000000E+00  -1.67112512059253E-11   2.01422857206721E-15  -9.11013923218902E-17
     -2.01422857261258E-15  -9.26202920669633E-17  -2.01422857260568E-15   6.07681862033647E-13   2.01422857315105E-15
      5.00000000000000E+02
     -2.40000000000000E+00   0.00000000000000E+00  -1.67112512059253E-11   2.00949175955138E-15  -9.07884289345853E-17
     -2.00949175994786E-15  -9.13685093062292E-17  -2.00949175994512E-15   6.07681862033647E-13   2.00949176034159E-15
      5.00000000000000E+02
     -2.25000000000000E+00   0.00000000000000E+00  -1.67112512059253E-11   2.00396629392343E-15  -9.04204286610429E-17
     -2.00396629374221E-15  -8.81429702063669E-17  -2.00396629375378E-15  -1.51920465508412E-12   2.00396629357257E-15
      5.00000000000000E+02
     -2.10000000000000E+00   0.00000000000000E+00  -1.67112512059253E-11   1.99739137551352E-15  -8.99774953874780E-17
     -1.99739137603256E-15  -9.35042896478411E-17  -1.99739137601589E-15   5.16529582728600E-12   1.99739137653493E-15
      5.00000000000000E+02
     -1.95000000000000E+00   0.00000000000000E+00  -1.67112512059253E-11   1.98936456709611E-15  -8.94281240798129E-17
     -1.98936456698571E-15  -8.91151142212699E-17  -1.98936456698746E-15   1.51920465508412E-13   1.98936456687707E-15
      5.00000000000000E+02
     -1.80000000000000E+00   0.00000000000000E+00  -1.67112512059253E-11   1.97923600054261E-15  -8.87201543357535E-17
     -1.97923600062949E-15  -8.89736663365233E-17  -1.97923600062903E-15   3.03840931016824E-12   1.97923600071592E-15
      5.00000000000000E+02
     -1.65000000000000E+00   0.00000000000000E+00  -1.67112512059253E-11   1.96589639223142E-15  -8.77623792453310E-17
     -1.96589639227737E-15  -8.97452707516704E-17  -1.96589639226840E-15  -1.97496605160935E-12   1.96589639231435E-15
      5.00000000000000E+02
     -1.50000000000000E+00   0.00000000000000E+00  -1.67112512059253E-11   1.94731402955249E-15  -8.63838192749686E-17
     -1.94731402961933E-15  -8.62506394587870E-17  -1.94731402962023E-15   1.67112512059253E-12   1.94731402968709E-15
      5.00000000000000E+02
     -1.35000000000000E+00   0.00000000000000E+00  -1.67112512059253E-11   1.91940668754624E-15  -8.42332903040466E-17
     -1.91940668783090E-15  -8.55698181158676E-17  -1.91940668782447E-15   7.59602327542059E-13   1.91940668810912E-15
      5.00000000000000E+02
     -1.20000000000000E+00   0.00000000000000E+00  -1.67112512059253E-11   1.87287707341914E-15  -8.04957315637155E-17
     -1.87287707344956E-15  -8.12628954614571E-17  -1.87287707344626E-15   2.12688651711777E-12   1.87287707347670E-15
      5.00000000000000E+02
     -1.05000000000000E+00   0.00000000000000E+00  -1.67112512059253E-11   1.78255488130646E-15  -7.29469033376716E-17
     -1.78255488134517E-15  -7.26921152432772E-17  -1.78255488134662E-15  -1.06344325855888E-12   1.78255488138533E-15
      5.00000000000000E+02
     -9.00000000000000E-01   0.00000000000000E+00  -1.67112512059253E-11   1.56324255940593E-15  -5.43886798882139E-17
     -1.56324255942270E-15  -5.41475530904509E-17  -1.56324255942396E-15   1.82304558610094E-12   1.56324255944075E-15
      5.00000000000000E+02
     -7.50000000000000E-01   0.00000000000000E+00  -1.67112512059253E-11   9.55922806580167E-16  -1.24121955082663E-17
     -9.55922806580780E-16  -1.22813573497279E-17  -9.55922806581116E-16  -4.86145489626918E-12   9.55922806581734E-16
      5.00000000000000E+02
     -6.00000000000000E-01   0.00000000000000E+00  -1.67112512059253E-11   5.40245824467423E-16  -7.13662889870285E-20
     -5.40245824467420E-16  -9.57978546912975E-20  -5.40245824467414E-16  -9.11522793050471E-13   5.40245824467425E-16
      5.00000000000000E+02
     -4.49999999999999E-01   0.00000000000000E+00  -1.67112512059253E-11   5.18721775700084E-16  -3.37970585840512E-22
     -5.18721775700077E-16  -1.93870456067116E-23  -5.18721775700077E-16  -9.11522793050471E-13   5.18721775700083E-16
      5.00000000000000E+02
     -2.99999999999999E-01   0.00000000000000E+00  -1.67112512059253E-11   5.18054668878348E-16  -1.29125042642652E-22
     -5.18054668878337E-16  -1.45402842050337E-22  -5.18054668878338E-16  -4.40569349974394E-12   5.18054668878341E-16
      5.00000000000000E+02
     -1.49999999999999E-01   0.00000000000000E+00  -1.67112512059253E-11   5.19475649826062E-16  -1.94880539200117E-19
     -5.19475649826025E-16  -1.87492118062508E-19  -5.19475649826116E-16  -4.55761396525235E-13   5.19475649826119E-16
      5.00000000000000E+02
      8.88178419700125E-16   0.00000000000000E+00  -1.67112512059253E-11   5.97578800082168E-16  -4.38019949735181E-16
     -5.97578800127415E-16  -4.38084068726837E-16  -5.97578800096392E-16   6.07681862033647E-13   5.97578800141660E-16
      5.00000000000000E+02
      1.50000000000001E-01   0.00000000000000E+00  -1.67112512059253E-11   1.31773586777166E-15  -3.98796295354444E-14
     -1.31773585312660E-15  -3.98778830257381E-14  -1.31773586141202E-15   3.03840931016824E-13   1.31773584676699E-15
      5.00000000000000E+02
      3.00000000000001E-01   0.00000000000000E+00  -1.67112512059253E-11   1.72110007926542E-15  -8.68002912789257E-14
     -1.72109997916275E-15  -8.67993794976359E-14  -1.72109998499903E-15   1.36728418957571E-12   1.72109988489636E-15
      5.00000000000000E+02
      4.50000000000001E-01   0.00000000000000E+00  -1.67112512059253E-11   1.85033557622480E-15  -1.04546963355206E-13
     -1.85033574303223E-15  -1.04545667601022E-13  -1.85033575281828E-15   7.59602327542059E-13   1.85033591962575E-15
      5.00000000000000E+02
      6.00000000000001E-01   0.00000000000000E+00  -1.67112512059253E-11   1.90836350650321E-15  -1.12688435517027E-13
     -1.90836326356243E-15  -1.12683007171252E-13  -1.90836330239966E-15   1.51920465508412E-12   1.90836305945892E-15
      5.00000000000000E+02
      7.50000000000001E-01   0.00000000000000E+00  -1.67112512059253E-11   1.94076186960952E-15  -1.17214882002213E-13
     -1.94076138484802E-15  -1.17206799246721E-13  -1.94076144172438E-15   2.73456837915141E-12   1.94076095696306E-15
      5.00000000000000E+02
      9.00000000000001E-01   0.00000000000000E+00  -1.67112512059253E-11   1.96145156267028E-15  -1.20075599914127E-13
     -1.96145135175132E-15  -1.20076101121734E-13  -1.96145135056703E-15   2.88648884465982E-12   1.96145113964811E-15
      5.00000000000000E+02
      1.05000000000000E+00   0.00000000000000E+00  -1.67112512059253E-11   1.97591276079970E-15  -1.22051769197007E-13
     -1.97591255823069E-15  -1.22054252612043E-13  -1.97591254300273E-15  -2.88648884465982E-12   1.97591234043375E-15
      5.00000000000000E+02
      1.20000000000000E+00   0.00000000000000E+00  -1.67112512059253E-11   1.98669491605803E-15  -1.23508559532598E-13
     -1.98669564694106E-15  -1.23513297073855E-13  -1.98669561364572E-15   2.27880698262618E-12   1.98669634452910E-15
      5.00000000000000E+02
      1.35000000000000E+00   0.00000000000000E+00  -1.67112512059253E-11   1.99512933104302E-15  -1.24635921983646E-13
     -1.99512894294849E-15  -1.24637028928370E-13  -1.99512893455623E-15   3.64609117220188E-12   1.99512854646182E-15
      5.00000000000000E+02
      1.50000000000000E+00   0.00000000000000E+00  -1.67112512059253E-11   2.00197195468880E-15  -1.25542083943946E-13
     -2.00197159308022E-15  -1.25546799808934E-13  -2.00197156210144E-15   2.58264791364300E-12   2.00197120049297E-15
      5.00000000000000E+02
      1.65000000000000E+00   0.00000000000000E+00  -1.67112512059253E-11   2.00768056021664E-15  -1.26292093960099E-13
     -2.00768188197973E-15  -1.26298251668962E-13  -2.00768183689744E-15   3.64609117220188E-12   2.00768315866169E-15
      5.00000000000000E+02
      1.80000000000000E+00   0.00000000000000E+00  -1.67112512059253E-11   2.01254682626590E-15  -1.26926481474052E-13
     -2.01254702877243E-15  -1.26920564506561E-13  -2.01254706799161E-15  -4.55761396525235E-13   2.01254727049820E-15
      5.00000000000000E+02
      1.95000000000000E+00   0.00000000000000E+00  -1.67112512059253E-11   2.01676441353931E-15  -1.27472665816679E-13
     -2.01676212583273E-15  -1.27473335057868E-13  -2.01676212143846E-15  -6.07681862033647E-13   2.01675983373547E-15
      5.00000000000000E+02
      2.10000000000000E+00   0.00000000000000E+00  -1.67112512059253E-11   2.02046727092086E-15  -1.27950597414688E-13
     -2.02046930286354E-15  -1.27951789278552E-13  -2.02046929318716E-15  -1.51920465508412E-13   2.02047132513265E-15
      5.00000000000000E+02
      2.25000000000000E+00   0.00000000000000E+00  -1.67112512059253E-11   2.02375092854934E-15  -1.28371627692574E-13
     -2.02375137358041E-15  -1.28370803341058E-13  -2.02375137726803E-15   5.62105722381124E-12   2.02375182229924E-15
      5.00000000000000E+02
      2.40000000000000E+00   0.00000000000000E+00  -1.67112512059253E-11   2.02668576317673E-15  -1.28746352133417E-13
     -2.02668457921474E-15  -1.28745095403614E-13  -2.02668458576684E-15   4.55761396525235E-12   2.02668340180581E-15
      5.00000000000000E+02
      2.55000000000000E+00   0.00000000000000E+00  -1.67112512059253E-11   2.02932525891963E-15  -1.29082267888221E-13
     -2.02932348317716E-15  -1.29075767731440E-13  -2.02932352630152E-15  -2.73456837915141E-12   2.02932175056115E-15
      5.00000000000000E+02
      2.70000000000000E+00   0.00000000000000E+00  -1.67112512059253E-11   2.03171097875585E-15  -1.29385324823928E-13
     -2.03171157086305E-15  -1.29387330006680E-13  -2.03171155541660E-15   5.46913675830282E-12   2.03171214752404E-15
      5.00000000000000E+02
      2.85000000000000E+00   0.00000000000000E+00  -1.67112512059253E-11   2.03387634444165E-15  -1.29659298530849E-13
     -2.03387732691508E-15  -1.29668562753987E-13  -2.03387726219448E-15  -9.11522793050471E-13   2.03387824466854E-15
      5.00000000000000E+02
      3.00000000000000E+00   0.00000000000000E+00  -1.67112512059253E-11   2.03584864528349E-15  -1.29907875464300E-13
     -2.03584815560878E-15  -1.29911173232358E-13  -2.03584813304402E-15  -1.82304558610094E-12   2.03584764336950E-15
}
